 Entering Gaussian System, Link 0=g09
 Input=anti_scan_190.gjf
 Output=anti_scan_190.log
 Initial command:
 /home/ik1r11/g09/l1.exe /scratch/ik1r11/Gau-30421.inp -scrdir=/scratch/ik1r11/
 Default is to use a total of   8 processors:
                                8 via shared-memory
                                1 via Linda
 Entering Link 1 = /home/ik1r11/g09/l1.exe PID=     30422.
  
 Copyright (c) 1988,1990,1992,1993,1995,1998,2003,2009, Gaussian, Inc.
                  All Rights Reserved.
  
 This is part of the Gaussian(R) 09 program.  It is based on
 the Gaussian(R) 03 system (copyright 2003, Gaussian, Inc.),
 the Gaussian(R) 98 system (copyright 1998, Gaussian, Inc.),
 the Gaussian(R) 94 system (copyright 1995, Gaussian, Inc.),
 the Gaussian 92(TM) system (copyright 1992, Gaussian, Inc.),
 the Gaussian 90(TM) system (copyright 1990, Gaussian, Inc.),
 the Gaussian 88(TM) system (copyright 1988, Gaussian, Inc.),
 the Gaussian 86(TM) system (copyright 1986, Carnegie Mellon
 University), and the Gaussian 82(TM) system (copyright 1983,
 Carnegie Mellon University). Gaussian is a federally registered
 trademark of Gaussian, Inc.
  
 This software contains proprietary and confidential information,
 including trade secrets, belonging to Gaussian, Inc.
  
 This software is provided under written license and may be
 used, copied, transmitted, or stored only in accord with that
 written license.
  
 The following legend is applicable only to US Government
 contracts under FAR:
  
                    RESTRICTED RIGHTS LEGEND
  
 Use, reproduction and disclosure by the US Government is
 subject to restrictions as set forth in subparagraphs (a)
 and (c) of the Commercial Computer Software - Restricted
 Rights clause in FAR 52.227-19.
  
 Gaussian, Inc.
 340 Quinnipiac St., Bldg. 40, Wallingford CT 06492
  
  
 ---------------------------------------------------------------
 Warning -- This program may not be used in any manner that
 competes with the business of Gaussian, Inc. or will provide
 assistance to any competitor of Gaussian, Inc.  The licensee
 of this program is prohibited from giving any competitor of
 Gaussian, Inc. access to this program.  By using this program,
 the user acknowledges that Gaussian, Inc. is engaged in the
 business of creating and licensing software in the field of
 computational chemistry and represents and warrants to the
 licensee that it is not a competitor of Gaussian, Inc. and that
 it will not use this program in any manner prohibited above.
 ---------------------------------------------------------------
  

 Cite this work as:
 Gaussian 09, Revision A.02,
 M. J. Frisch, G. W. Trucks, H. B. Schlegel, G. E. Scuseria, 
 M. A. Robb, J. R. Cheeseman, G. Scalmani, V. Barone, B. Mennucci, 
 G. A. Petersson, H. Nakatsuji, M. Caricato, X. Li, H. P. Hratchian, 
 A. F. Izmaylov, J. Bloino, G. Zheng, J. L. Sonnenberg, M. Hada, 
 M. Ehara, K. Toyota, R. Fukuda, J. Hasegawa, M. Ishida, T. Nakajima, 
 Y. Honda, O. Kitao, H. Nakai, T. Vreven, J. A. Montgomery, Jr., 
 J. E. Peralta, F. Ogliaro, M. Bearpark, J. J. Heyd, E. Brothers, 
 K. N. Kudin, V. N. Staroverov, R. Kobayashi, J. Normand, 
 K. Raghavachari, A. Rendell, J. C. Burant, S. S. Iyengar, J. Tomasi, 
 M. Cossi, N. Rega, J. M. Millam, M. Klene, J. E. Knox, J. B. Cross, 
 V. Bakken, C. Adamo, J. Jaramillo, R. Gomperts, R. E. Stratmann, 
 O. Yazyev, A. J. Austin, R. Cammi, C. Pomelli, J. W. Ochterski, 
 R. L. Martin, K. Morokuma, V. G. Zakrzewski, G. A. Voth, 
 P. Salvador, J. J. Dannenberg, S. Dapprich, A. D. Daniels, 
 O. Farkas, J. B. Foresman, J. V. Ortiz, J. Cioslowski, 
 and D. J. Fox, Gaussian, Inc., Wallingford CT, 2009.
 
 ******************************************
 Gaussian 09:  EM64L-G09RevA.02 11-Jun-2009
                19-Jan-2014 
 ******************************************
 %Mem=16GB
 %NProcShared=16
 Will use up to   16 processors via shared memory.
 Default route:  MaxDisk=100GB
 ----------------------------------------------------------------------
 #p freq=hinderedrotor m052x/cc-pvtz scf=tight integral=(grid=ultrafine
 ) scrf=(smd,solvent=chloroform)
 ----------------------------------------------------------------------
 1/10=4,18=20,30=1,38=1/1,3;
 2/12=2,17=6,18=5,40=1/2;
 3/5=16,6=1,11=2,16=1,25=1,30=1,70=32201,71=2,72=7,74=-38,75=-5/1,2,3;
 4//1;
 5/5=2,32=2,38=5,53=7,98=1/2;
 8/6=4,10=90,11=11/1;
 11/6=1,8=1,9=11,15=111,16=1/1,2,10;
 10/6=1/2;
 6/7=2,8=2,9=2,10=2,18=1,28=1/1;
 7/8=2001,10=1,25=1/1,2,3,16;
 1/10=4,18=20,30=1/3;
 99/8=20/99;
 Leave Link    1 at Sun Jan 19 13:58:48 2014, MaxMem= 2147483648 cpu:       3.0
 (Enter /home/ik1r11/g09/l101.exe)
 ------------------
 Gibbs free energy.
 ------------------
 Symbolic Z-matrix:
 Charge =  0 Multiplicity = 1
 C                     0.72936  -1.22673   0.20684 
 F                     0.73324  -1.34492   1.60897 
 H                     1.1973   -2.12685  -0.18349 
 C                    -0.73069  -1.22586  -0.20734 
 F                    -0.73472  -1.34349  -1.60952 
 H                    -1.1996   -2.12563   0.18264 
 C                    -1.50442   0.00257   0.17907 
 H                    -1.43374   0.15449   1.25403 
 H                    -1.11304   0.87912  -0.33016 
 H                    -2.55084  -0.12064  -0.08642 
 C                     1.50442   0.00102  -0.17906 
 H                     1.43394   0.15343  -1.25397 
 H                     1.11395   0.87778   0.3305 
 H                     2.5507   -0.12341   0.08642 
 
 NAtoms=     14 NQM=     14 NQMF=      0 NMic=      0 NMicF=      0 NTot=     14.
                    Isotopes and Nuclear Properties:
 (Nuclear quadrupole moments (NQMom) in fm**2, nuclear magnetic moments (NMagM)
  in nuclear magnetons)

  Atom         1           2           3           4           5           6           7           8           9          10
 IAtWgt=          12          19           1          12          19           1          12           1           1           1
 AtmWgt=  12.0000000  18.9984033   1.0078250  12.0000000  18.9984033   1.0078250  12.0000000   1.0078250   1.0078250   1.0078250
 NucSpn=           0           1           1           0           1           1           0           1           1           1
 AtZEff=   0.0000000   0.0000000   0.0000000   0.0000000   0.0000000   0.0000000   0.0000000   0.0000000   0.0000000   0.0000000
 NQMom=    0.0000000   0.0000000   0.0000000   0.0000000   0.0000000   0.0000000   0.0000000   0.0000000   0.0000000   0.0000000
 NMagM=    0.0000000   2.6288670   2.7928460   0.0000000   2.6288670   2.7928460   0.0000000   2.7928460   2.7928460   2.7928460

  Atom        11          12          13          14
 IAtWgt=          12           1           1           1
 AtmWgt=  12.0000000   1.0078250   1.0078250   1.0078250
 NucSpn=           0           1           1           1
 AtZEff=   0.0000000   0.0000000   0.0000000   0.0000000
 NQMom=    0.0000000   0.0000000   0.0000000   0.0000000
 NMagM=    0.0000000   2.7928460   2.7928460   2.7928460
 Leave Link  101 at Sun Jan 19 13:58:48 2014, MaxMem= 2147483648 cpu:       1.0
 (Enter /home/ik1r11/g09/l103.exe)

 GradGradGradGradGradGradGradGradGradGradGradGradGradGradGradGradGradGrad
 Berny optimization.
 Initialization pass.
                           ----------------------------
                           !    Initial Parameters    !
                           ! (Angstroms and Degrees)  !
 --------------------------                            --------------------------
 ! Name  Definition              Value          Derivative Info.                !
 --------------------------------------------------------------------------------
 ! R1    R(1,2)                  1.4071         calculate D2E/DX2 analytically  !
 ! R2    R(1,3)                  1.087          calculate D2E/DX2 analytically  !
 ! R3    R(1,4)                  1.5177         calculate D2E/DX2 analytically  !
 ! R4    R(1,11)                 1.5023         calculate D2E/DX2 analytically  !
 ! R5    R(4,5)                  1.4071         calculate D2E/DX2 analytically  !
 ! R6    R(4,6)                  1.087          calculate D2E/DX2 analytically  !
 ! R7    R(4,7)                  1.5023         calculate D2E/DX2 analytically  !
 ! R8    R(7,8)                  1.0879         calculate D2E/DX2 analytically  !
 ! R9    R(7,9)                  1.0867         calculate D2E/DX2 analytically  !
 ! R10   R(7,10)                 1.0866         calculate D2E/DX2 analytically  !
 ! R11   R(11,12)                1.0879         calculate D2E/DX2 analytically  !
 ! R12   R(11,13)                1.0867         calculate D2E/DX2 analytically  !
 ! R13   R(11,14)                1.0866         calculate D2E/DX2 analytically  !
 ! A1    A(2,1,3)              106.683          calculate D2E/DX2 analytically  !
 ! A2    A(2,1,4)              105.9405         calculate D2E/DX2 analytically  !
 ! A3    A(2,1,11)             108.8555         calculate D2E/DX2 analytically  !
 ! A4    A(3,1,4)              108.4591         calculate D2E/DX2 analytically  !
 ! A5    A(3,1,11)             111.2481         calculate D2E/DX2 analytically  !
 ! A6    A(4,1,11)             115.1982         calculate D2E/DX2 analytically  !
 ! A7    A(1,4,5)              105.9412         calculate D2E/DX2 analytically  !
 ! A8    A(1,4,6)              108.4587         calculate D2E/DX2 analytically  !
 ! A9    A(1,4,7)              115.198          calculate D2E/DX2 analytically  !
 ! A10   A(5,4,6)              106.6829         calculate D2E/DX2 analytically  !
 ! A11   A(5,4,7)              108.8557         calculate D2E/DX2 analytically  !
 ! A12   A(6,4,7)              111.2479         calculate D2E/DX2 analytically  !
 ! A13   A(4,7,8)              109.5638         calculate D2E/DX2 analytically  !
 ! A14   A(4,7,9)              110.7043         calculate D2E/DX2 analytically  !
 ! A15   A(4,7,10)             109.9026         calculate D2E/DX2 analytically  !
 ! A16   A(8,7,9)              109.0864         calculate D2E/DX2 analytically  !
 ! A17   A(8,7,10)             108.6522         calculate D2E/DX2 analytically  !
 ! A18   A(9,7,10)             108.8942         calculate D2E/DX2 analytically  !
 ! A19   A(1,11,12)            109.5638         calculate D2E/DX2 analytically  !
 ! A20   A(1,11,13)            110.7042         calculate D2E/DX2 analytically  !
 ! A21   A(1,11,14)            109.9028         calculate D2E/DX2 analytically  !
 ! A22   A(12,11,13)           109.0863         calculate D2E/DX2 analytically  !
 ! A23   A(12,11,14)           108.6522         calculate D2E/DX2 analytically  !
 ! A24   A(13,11,14)           108.8941         calculate D2E/DX2 analytically  !
 ! D1    D(2,1,4,5)           -170.0009         calculate D2E/DX2 analytically  !
 ! D2    D(2,1,4,6)            -55.7902         calculate D2E/DX2 analytically  !
 ! D3    D(2,1,4,7)             69.611          calculate D2E/DX2 analytically  !
 ! D4    D(3,1,4,5)            -55.7902         calculate D2E/DX2 analytically  !
 ! D5    D(3,1,4,6)             58.4205         calculate D2E/DX2 analytically  !
 ! D6    D(3,1,4,7)           -176.1784         calculate D2E/DX2 analytically  !
 ! D7    D(11,1,4,5)            69.6116         calculate D2E/DX2 analytically  !
 ! D8    D(11,1,4,6)          -176.1777         calculate D2E/DX2 analytically  !
 ! D9    D(11,1,4,7)           -50.7765         calculate D2E/DX2 analytically  !
 ! D10   D(2,1,11,12)         -174.9536         calculate D2E/DX2 analytically  !
 ! D11   D(2,1,11,13)          -54.6024         calculate D2E/DX2 analytically  !
 ! D12   D(2,1,11,14)           65.7293         calculate D2E/DX2 analytically  !
 ! D13   D(3,1,11,12)           67.7706         calculate D2E/DX2 analytically  !
 ! D14   D(3,1,11,13)         -171.8782         calculate D2E/DX2 analytically  !
 ! D15   D(3,1,11,14)          -51.5465         calculate D2E/DX2 analytically  !
 ! D16   D(4,1,11,12)          -56.1753         calculate D2E/DX2 analytically  !
 ! D17   D(4,1,11,13)           64.1759         calculate D2E/DX2 analytically  !
 ! D18   D(4,1,11,14)         -175.4924         calculate D2E/DX2 analytically  !
 ! D19   D(1,4,7,8)            -56.1731         calculate D2E/DX2 analytically  !
 ! D20   D(1,4,7,9)             64.1783         calculate D2E/DX2 analytically  !
 ! D21   D(1,4,7,10)          -175.49           calculate D2E/DX2 analytically  !
 ! D22   D(5,4,7,8)           -174.9523         calculate D2E/DX2 analytically  !
 ! D23   D(5,4,7,9)            -54.6009         calculate D2E/DX2 analytically  !
 ! D24   D(5,4,7,10)            65.7308         calculate D2E/DX2 analytically  !
 ! D25   D(6,4,7,8)             67.7719         calculate D2E/DX2 analytically  !
 ! D26   D(6,4,7,9)           -171.8766         calculate D2E/DX2 analytically  !
 ! D27   D(6,4,7,10)           -51.545          calculate D2E/DX2 analytically  !
 --------------------------------------------------------------------------------
 Trust Radius=3.00D-01 FncErr=1.00D-07 GrdErr=1.00D-07
 Number of steps in this run=   2 maximum allowed number of steps=   2.
 GradGradGradGradGradGradGradGradGradGradGradGradGradGradGradGradGradGrad

 Leave Link  103 at Sun Jan 19 13:58:48 2014, MaxMem= 2147483648 cpu:       0.1
 (Enter /home/ik1r11/g09/l202.exe)
                          Input orientation:                          
 ---------------------------------------------------------------------
 Center     Atomic      Atomic             Coordinates (Angstroms)
 Number     Number       Type             X           Y           Z
 ---------------------------------------------------------------------
      1          6           0        0.729363   -1.226730    0.206838
      2          9           0        0.733244   -1.344924    1.608974
      3          1           0        1.197301   -2.126853   -0.183491
      4          6           0       -0.730693   -1.225858   -0.207336
      5          9           0       -0.734719   -1.343488   -1.609519
      6          1           0       -1.199598   -2.125632    0.182638
      7          6           0       -1.504423    0.002570    0.179072
      8          1           0       -1.433741    0.154489    1.254032
      9          1           0       -1.113037    0.879116   -0.330164
     10          1           0       -2.550842   -0.120636   -0.086421
     11          6           0        1.504421    0.001018   -0.179064
     12          1           0        1.433938    0.153433   -1.253968
     13          1           0        1.113954    0.877783    0.330500
     14          1           0        2.550698   -0.123408    0.086416
 ---------------------------------------------------------------------
                    Distance matrix (angstroms):
                    1          2          3          4          5
     1  C    0.000000
     2  F    1.407114   0.000000
     3  H    1.086989   2.009899   0.000000
     4  C    1.517664   2.335866   2.128267   0.000000
     5  F    2.335877   3.537459   2.525850   1.407114   0.000000
     6  H    2.128262   2.525830   2.424701   1.086989   2.009898
     7  C    2.549853   2.977837   3.459076   1.502333   2.367145
     8  H    2.771895   2.658956   3.767410   2.129608   3.306432
     9  H    2.849104   3.480713   3.794078   2.142939   2.592266
    10  H    3.474074   3.893387   4.252400   2.132857   2.667114
    11  C    1.502332   2.367140   2.149925   2.549855   2.977859
    12  H    2.129608   3.306431   2.530143   2.771914   2.658996
    13  H    2.142937   2.592270   3.049421   2.849087   3.480705
    14  H    2.132858   2.667100   2.432761   3.474077   3.893425
                    6          7          8          9         10
     6  H    0.000000
     7  C    2.149924   0.000000
     8  H    2.530150   1.087940   0.000000
     9  H    3.049421   1.086663   1.771331   0.000000
    10  H    2.432748   1.086581   1.766472   1.768106   0.000000
    11  C    3.459073   3.030084   3.272631   2.764955   4.058145
    12  H    3.767424   3.272664   3.809678   2.804837   4.161340
    13  H    3.794060   2.764928   2.804784   2.322922   3.821177
    14  H    4.252397   4.058135   4.161287   3.821197   5.104468
                   11         12         13         14
    11  C    0.000000
    12  H    1.087942   0.000000
    13  H    1.086663   1.771330   0.000000
    14  H    1.086580   1.766472   1.768105   0.000000
 Stoichiometry    C4H8F2
 Framework group  C1[X(C4H8F2)]
 Deg. of freedom    36
 Full point group                 C1      NOp   1
 Largest Abelian subgroup         C1      NOp   1
 Largest concise Abelian subgroup C1      NOp   1
                         Standard orientation:                         
 ---------------------------------------------------------------------
 Center     Atomic      Atomic             Coordinates (Angstroms)
 Number     Number       Type             X           Y           Z
 ---------------------------------------------------------------------
      1          6           0       -0.724057   -0.227087   -0.399868
      2          9           0       -1.496145    0.943360   -0.517785
      3          1           0       -0.901878   -0.810198   -1.299815
      4          6           0        0.724058    0.227077   -0.399864
      5          9           0        1.496161   -0.943361   -0.517771
      6          1           0        0.901878    0.810185   -1.299814
      7          6           0        1.159942    0.974615    0.828223
      8          1           0        0.511528    1.834858    0.980391
      9          1           0        1.112328    0.334269    1.704880
     10          1           0        2.180549    1.326310    0.704401
     11          6           0       -1.159959   -0.974607    0.828222
     12          1           0       -0.511571   -1.834872    0.980388
     13          1           0       -1.112315   -0.334260    1.704876
     14          1           0       -2.180577   -1.326268    0.704412
 ---------------------------------------------------------------------
 Rotational constants (GHZ):      4.5920552      2.6788644      2.3626590
 Leave Link  202 at Sun Jan 19 13:58:48 2014, MaxMem= 2147483648 cpu:       0.8
 (Enter /home/ik1r11/g09/l301.exe)
 Standard basis: CC-pVTZ (5D, 7F)
 Ernie: Thresh=  0.10000D-02 Tol=  0.10000D-05 Strict=F.
 Ernie:  18 primitive shells out of 220 were deleted.
 There are   292 symmetry adapted basis functions of A   symmetry.
 Integral buffers will be    131072 words long.
 Raffenetti 2 integral format.
 Two-electron integral symmetry is turned on.
   292 basis functions,   448 primitive gaussians,   330 cartesian basis functions
    25 alpha electrons       25 beta electrons
       nuclear repulsion energy       264.6934583916 Hartrees.
 IExCor= 3428 DFT=T Ex+Corr=M052X ExCW=0 ScaHFX=  0.560000
 ScaDFX=  0.440000  0.440000  1.000000  1.000000 ScalE2=  1.000000  1.000000
 IRadAn=      5 IRanWt=     -1 IRanGd=            0 ICorTp=0
 NAtoms=   14 NActive=   14 NUniq=   14 SFac= 7.50D-01 NAtFMM=   80 NAOKFM=F Big=F
 ------------------------------------------------------------------------------
 Polarizable Continuum Model (PCM)
 =================================
 Model                : PCM.
 Atomic radii         : SMD-Coulomb.
 Polarization charges : Total charges.
 Charge compensation  : None.
 Solution method      : Matrix inversion.
 Cavity type          : VdW (van der Waals Surface) (Alpha=1.000).
 Cavity algorithm     : GePol (No added spheres)
                        Default sphere list used, NSphG=   14.
                        Lebedev-Laikov grids with approx.  5.0 points / Ang**2.
                        Smoothing algorithm: Karplus/York (Gamma=1.0000).
                        Polarization charges: spherical gaussians, with
                                              point-specific exponents (IZeta= 3).
                        Self-potential: point-specific (ISelfS= 7).
                        Self-field    : sphere-specific E.n sum rule (ISelfD= 2).
 1st derivatives      : Analytical E(r).r(x)/FMM algorithm (CHGder, D1EAlg=3).
                        Cavity 1st derivative terms included.
 2nd derivatives      : Analytical E(r).r(xy)/FMM algorithm (CHGder, D2EAlg=3).
                        Cavity 2nd derivative terms included.
 Solvent              : Chloroform, Eps=   4.711300 Eps(inf)=   2.090627
 ------------------------------------------------------------------------------
 Spheres list:
 ISph  on   Nord    Re0     Alpha      Xe            Ye            Ze
    1   C      1    1.850   1.000     -0.724057     -0.227087     -0.399868
    2   F      2    1.730   1.000     -1.496145      0.943360     -0.517785
    3   H      3    1.200   1.000     -0.901878     -0.810198     -1.299815
    4   C      4    1.850   1.000      0.724058      0.227077     -0.399864
    5   F      5    1.730   1.000      1.496161     -0.943361     -0.517771
    6   H      6    1.200   1.000      0.901878      0.810185     -1.299814
    7   C      7    1.850   1.000      1.159942      0.974615      0.828223
    8   H      8    1.200   1.000      0.511528      1.834858      0.980391
    9   H      9    1.200   1.000      1.112328      0.334269      1.704880
   10   H     10    1.200   1.000      2.180549      1.326310      0.704401
   11   C     11    1.850   1.000     -1.159959     -0.974607      0.828222
   12   H     12    1.200   1.000     -0.511571     -1.834872      0.980388
   13   H     13    1.200   1.000     -1.112315     -0.334260      1.704876
   14   H     14    1.200   1.000     -2.180577     -1.326268      0.704412
 ------------------------------------------------------------------------------
 GePol: Number of generator spheres                  =      14
 GePol: Total number of spheres                      =      14
 GePol: Number of exposed spheres                    =      14 (100.00%)
 GePol: Number of points                             =    1028
 GePol: Average weight of points                     =       0.12
 GePol: Minimum weight of points                     =   0.29D-06
 GePol: Maximum weight of points                     =    0.21501
 GePol: Number of points with low weight             =      72
 GePol: Fraction of low-weight points (<1% of avg)   =       7.00%
 GePol: Cavity surface area                          =    127.950 Ang**2
 GePol: Cavity volume                                =    102.529 Ang**3
 ------------------------------------------------------------------------------
 Atomic radii for non-electrostatic terms: SMD-CDS.
 ------------------------------------------------------------------------------
 PCM non-electrostatic energy =        -0.0019907038 Hartrees.
 Nuclear repulsion after PCM non-electrostatic terms =      264.6914676878 Hartrees.
 Leave Link  301 at Sun Jan 19 13:58:48 2014, MaxMem= 2147483648 cpu:       1.0
 (Enter /home/ik1r11/g09/l302.exe)
 NPDir=0 NMtPBC=     1 NCelOv=     1 NCel=       1 NClECP=     1 NCelD=      1
         NCelK=      1 NCelE2=     1 NClLst=     1 CellRange=     0.0.
 One-electron integrals computed using PRISM.
 NBasis=   292 RedAO= T  NBF=   292
 NBsUse=   292 1.00D-06 NBFU=   292
 Precomputing XC quadrature grid using
 IXCGrd= 2 IRadAn=           5 IRanWt=          -1 IRanGd=           0 AccXCQ= 1.00D-10.
 NRdTot=    1162 NPtTot=      311916 NUsed=      320245 NTot=      320277
 NSgBfM=   330   330   330   330   330 NAtAll=    14    14.
 Leave Link  302 at Sun Jan 19 13:58:50 2014, MaxMem= 2147483648 cpu:      14.3
 (Enter /home/ik1r11/g09/l303.exe)
 DipDrv:  MaxL=1.
 Leave Link  303 at Sun Jan 19 13:58:50 2014, MaxMem= 2147483648 cpu:       3.1
 (Enter /home/ik1r11/g09/l401.exe)
 Harris functional with IExCor= 1009 diagonalized for initial guess.
 ExpMin= 1.03D-01 ExpMax= 1.95D+04 ExpMxC= 6.65D+02 IAcc=3 IRadAn=         5 AccDes= 0.00D+00
 HarFok:  IExCor= 1009 AccDes= 0.00D+00 IRadAn=         5 IDoV= 1
 ScaDFX=  1.000000  1.000000  1.000000  1.000000
 FoFCou: FMM=F IPFlag=           0 FMFlag=      100000 FMFlg1=           0
         NFxFlg=           0 DoJE=T BraDBF=F KetDBF=T FulRan=T
         Omega=  0.000000  0.000000  1.000000  0.000000  0.000000 ICntrl=     500 IOpCl=  0
         NMat0=    1 NMatS0=    1 NMatT0=    0 NMatD0=    1 NMtDS0=    0 NMtDT0=    0
         I1Cent=           4 NGrid=           0.
 Petite list used in FoFCou.
 Harris En= -356.796022945050    
 Initial guess orbital symmetries:
       Occupied  (A) (A) (A) (A) (A) (A) (A) (A) (A) (A) (A) (A)
                 (A) (A) (A) (A) (A) (A) (A) (A) (A) (A) (A) (A)
                 (A)
       Virtual   (A) (A) (A) (A) (A) (A) (A) (A) (A) (A) (A) (A)
                 (A) (A) (A) (A) (A) (A) (A) (A) (A) (A) (A) (A)
                 (A) (A) (A) (A) (A) (A) (A) (A) (A) (A) (A) (A)
                 (A) (A) (A) (A) (A) (A) (A) (A) (A) (A) (A) (A)
                 (A) (A) (A) (A) (A) (A) (A) (A) (A) (A) (A) (A)
                 (A) (A) (A) (A) (A) (A) (A) (A) (A) (A) (A) (A)
                 (A) (A) (A) (A) (A) (A) (A) (A) (A) (A) (A) (A)
                 (A) (A) (A) (A) (A) (A) (A) (A) (A) (A) (A) (A)
                 (A) (A) (A) (A) (A) (A) (A) (A) (A) (A) (A) (A)
                 (A) (A) (A) (A) (A) (A) (A) (A) (A) (A) (A) (A)
                 (A) (A) (A) (A) (A) (A) (A) (A) (A) (A) (A) (A)
                 (A) (A) (A) (A) (A) (A) (A) (A) (A) (A) (A) (A)
                 (A) (A) (A) (A) (A) (A) (A) (A) (A) (A) (A) (A)
                 (A) (A) (A) (A) (A) (A) (A) (A) (A) (A) (A) (A)
                 (A) (A) (A) (A) (A) (A) (A) (A) (A) (A) (A) (A)
                 (A) (A) (A) (A) (A) (A) (A) (A) (A) (A) (A) (A)
                 (A) (A) (A) (A) (A) (A) (A) (A) (A) (A) (A) (A)
                 (A) (A) (A) (A) (A) (A) (A) (A) (A) (A) (A) (A)
                 (A) (A) (A) (A) (A) (A) (A) (A) (A) (A) (A) (A)
                 (A) (A) (A) (A) (A) (A) (A) (A) (A) (A) (A) (A)
                 (A) (A) (A) (A) (A) (A) (A) (A) (A) (A) (A) (A)
                 (A) (A) (A) (A) (A) (A) (A) (A) (A) (A) (A) (A)
                 (A) (A) (A)
 The electronic state of the initial guess is 1-A.
 Leave Link  401 at Sun Jan 19 13:58:54 2014, MaxMem= 2147483648 cpu:      45.1
 (Enter /home/ik1r11/g09/l502.exe)
 Closed shell SCF:
 Requested convergence on RMS density matrix=1.00D-08 within 128 cycles.
 Requested convergence on MAX density matrix=1.00D-06.
 Requested convergence on             energy=1.00D-06.
 No special actions if energy rises.
 Using DIIS extrapolation, IDIIS=  1040.
 Integral symmetry usage will be decided dynamically.
       320106 words used for storage of precomputed grid.
 Keep R1 ints in memory in canonical form, NReq=1510231254.
 IEnd=      672640 IEndB=      672640 NGot=  2147483648 MDV=   655510431
 LenX=   655510431 LenY=   655401090
 Symmetry not used in FoFDir.
 MinBra= 0 MaxBra= 3 Meth= 1.
 IRaf=       0 NMat=   1 IRICut=       1 DoRegI=T DoRafI=F ISym2E= 0 JSym2E=0.

 Cycle   1  Pass 1  IDiag  1:
 E= -356.878014390922    
 DIIS: error= 2.61D-02 at cycle   1 NSaved=   1.
 NSaved= 1 IEnMin= 1 EnMin= -356.878014390922     IErMin= 1 ErrMin= 2.61D-02
 ErrMax= 2.61D-02 EMaxC= 1.00D-01 BMatC= 2.00D-01 BMatP= 2.00D-01
 IDIUse=3 WtCom= 7.39D-01 WtEn= 2.61D-01
 Coeff-Com:  0.100D+01
 Coeff-En:   0.100D+01
 Coeff:      0.100D+01
 Gap=     0.535 Goal=   None    Shift=    0.000
 GapD=    0.535 DampG=2.000 DampE=0.500 DampFc=1.0000 IDamp=-1.
 RMSDP=1.57D-03 MaxDP=5.84D-02              OVMax= 1.36D-01

 Cycle   2  Pass 1  IDiag  1:
 E= -356.952239217166     Delta-E=       -0.074224826244 Rises=F Damp=F
 DIIS: error= 2.20D-02 at cycle   2 NSaved=   2.
 NSaved= 2 IEnMin= 2 EnMin= -356.952239217166     IErMin= 2 ErrMin= 2.20D-02
 ErrMax= 2.20D-02 EMaxC= 1.00D-01 BMatC= 1.02D-01 BMatP= 2.00D-01
 IDIUse=3 WtCom= 7.80D-01 WtEn= 2.20D-01
 Coeff-Com:  0.409D+00 0.591D+00
 Coeff-En:   0.313D+00 0.687D+00
 Coeff:      0.388D+00 0.612D+00
 Gap=     0.504 Goal=   None    Shift=    0.000
 RMSDP=7.24D-04 MaxDP=3.01D-02 DE=-7.42D-02 OVMax= 6.44D-02

 Cycle   3  Pass 1  IDiag  1:
 E= -357.039310582554     Delta-E=       -0.087071365388 Rises=F Damp=F
 DIIS: error= 2.25D-03 at cycle   3 NSaved=   3.
 NSaved= 3 IEnMin= 3 EnMin= -357.039310582554     IErMin= 3 ErrMin= 2.25D-03
 ErrMax= 2.25D-03 EMaxC= 1.00D-01 BMatC= 2.00D-03 BMatP= 1.02D-01
 IDIUse=3 WtCom= 9.78D-01 WtEn= 2.25D-02
 Coeff-Com:  0.169D-01 0.129D+00 0.854D+00
 Coeff-En:   0.000D+00 0.000D+00 0.100D+01
 Coeff:      0.165D-01 0.126D+00 0.857D+00
 Gap=     0.485 Goal=   None    Shift=    0.000
 RMSDP=8.95D-05 MaxDP=2.82D-03 DE=-8.71D-02 OVMax= 7.01D-03

 Cycle   4  Pass 1  IDiag  1:
 E= -357.040827959067     Delta-E=       -0.001517376512 Rises=F Damp=F
 DIIS: error= 5.74D-04 at cycle   4 NSaved=   4.
 NSaved= 4 IEnMin= 4 EnMin= -357.040827959067     IErMin= 4 ErrMin= 5.74D-04
 ErrMax= 5.74D-04 EMaxC= 1.00D-01 BMatC= 1.06D-04 BMatP= 2.00D-03
 IDIUse=3 WtCom= 9.94D-01 WtEn= 5.74D-03
 Coeff-Com: -0.199D-02 0.302D-01 0.296D+00 0.676D+00
 Coeff-En:   0.000D+00 0.000D+00 0.000D+00 0.100D+01
 Coeff:     -0.198D-02 0.300D-01 0.294D+00 0.678D+00
 Gap=     0.483 Goal=   None    Shift=    0.000
 RMSDP=2.17D-05 MaxDP=6.55D-04 DE=-1.52D-03 OVMax= 2.35D-03

 Cycle   5  Pass 1  IDiag  1:
 E= -357.040889131639     Delta-E=       -0.000061172572 Rises=F Damp=F
 DIIS: error= 2.69D-04 at cycle   5 NSaved=   5.
 NSaved= 5 IEnMin= 5 EnMin= -357.040889131639     IErMin= 5 ErrMin= 2.69D-04
 ErrMax= 2.69D-04 EMaxC= 1.00D-01 BMatC= 2.17D-05 BMatP= 1.06D-04
 IDIUse=3 WtCom= 9.97D-01 WtEn= 2.69D-03
 Coeff-Com: -0.234D-02 0.235D-02 0.544D-01 0.333D+00 0.613D+00
 Coeff-En:   0.000D+00 0.000D+00 0.000D+00 0.387D-01 0.961D+00
 Coeff:     -0.233D-02 0.234D-02 0.543D-01 0.332D+00 0.614D+00
 Gap=     0.484 Goal=   None    Shift=    0.000
 RMSDP=8.12D-06 MaxDP=1.99D-04 DE=-6.12D-05 OVMax= 5.23D-04

 Cycle   6  Pass 1  IDiag  1:
 E= -357.040902000614     Delta-E=       -0.000012868974 Rises=F Damp=F
 DIIS: error= 2.59D-05 at cycle   6 NSaved=   6.
 NSaved= 6 IEnMin= 6 EnMin= -357.040902000614     IErMin= 6 ErrMin= 2.59D-05
 ErrMax= 2.59D-05 EMaxC= 1.00D-01 BMatC= 3.04D-07 BMatP= 2.17D-05
 IDIUse=1 WtCom= 1.00D+00 WtEn= 0.00D+00
 Coeff-Com: -0.442D-03-0.265D-02-0.186D-01 0.350D-02 0.671D-01 0.951D+00
 Coeff:     -0.442D-03-0.265D-02-0.186D-01 0.350D-02 0.671D-01 0.951D+00
 Gap=     0.484 Goal=   None    Shift=    0.000
 RMSDP=2.48D-06 MaxDP=6.39D-05 DE=-1.29D-05 OVMax= 1.83D-04

 Cycle   7  Pass 1  IDiag  1:
 E= -357.040902347962     Delta-E=       -0.000000347348 Rises=F Damp=F
 DIIS: error= 1.37D-05 at cycle   7 NSaved=   7.
 NSaved= 7 IEnMin= 7 EnMin= -357.040902347962     IErMin= 7 ErrMin= 1.37D-05
 ErrMax= 1.37D-05 EMaxC= 1.00D-01 BMatC= 5.22D-08 BMatP= 3.04D-07
 IDIUse=1 WtCom= 1.00D+00 WtEn= 0.00D+00
 Coeff-Com:  0.228D-04-0.103D-02-0.968D-02-0.167D-01-0.121D-01 0.338D+00
 Coeff-Com:  0.701D+00
 Coeff:      0.228D-04-0.103D-02-0.968D-02-0.167D-01-0.121D-01 0.338D+00
 Coeff:      0.701D+00
 Gap=     0.484 Goal=   None    Shift=    0.000
 RMSDP=6.50D-07 MaxDP=1.71D-05 DE=-3.47D-07 OVMax= 4.67D-05

 Cycle   8  Pass 1  IDiag  1:
 E= -357.040902391965     Delta-E=       -0.000000044003 Rises=F Damp=F
 DIIS: error= 2.77D-06 at cycle   8 NSaved=   8.
 NSaved= 8 IEnMin= 8 EnMin= -357.040902391965     IErMin= 8 ErrMin= 2.77D-06
 ErrMax= 2.77D-06 EMaxC= 1.00D-01 BMatC= 1.66D-09 BMatP= 5.22D-08
 IDIUse=1 WtCom= 1.00D+00 WtEn= 0.00D+00
 Coeff-Com:  0.307D-04 0.511D-04 0.108D-03-0.257D-02-0.861D-02-0.350D-01
 Coeff-Com:  0.935D-01 0.953D+00
 Coeff:      0.307D-04 0.511D-04 0.108D-03-0.257D-02-0.861D-02-0.350D-01
 Coeff:      0.935D-01 0.953D+00
 Gap=     0.484 Goal=   None    Shift=    0.000
 RMSDP=1.94D-07 MaxDP=5.62D-06 DE=-4.40D-08 OVMax= 1.28D-05

 Cycle   9  Pass 1  IDiag  1:
 E= -357.040902394149     Delta-E=       -0.000000002185 Rises=F Damp=F
 DIIS: error= 3.94D-07 at cycle   9 NSaved=   9.
 NSaved= 9 IEnMin= 9 EnMin= -357.040902394149     IErMin= 9 ErrMin= 3.94D-07
 ErrMax= 3.94D-07 EMaxC= 1.00D-01 BMatC= 4.51D-11 BMatP= 1.66D-09
 IDIUse=1 WtCom= 1.00D+00 WtEn= 0.00D+00
 Coeff-Com:  0.366D-05 0.412D-04 0.331D-03 0.176D-03-0.396D-03-0.168D-01
 Coeff-Com: -0.135D-01 0.125D+00 0.905D+00
 Coeff:      0.366D-05 0.412D-04 0.331D-03 0.176D-03-0.396D-03-0.168D-01
 Coeff:     -0.135D-01 0.125D+00 0.905D+00
 Gap=     0.484 Goal=   None    Shift=    0.000
 RMSDP=3.53D-08 MaxDP=1.37D-06 DE=-2.18D-09 OVMax= 2.38D-06

 Cycle  10  Pass 1  IDiag  1:
 E= -357.040902394210     Delta-E=       -0.000000000060 Rises=F Damp=F
 DIIS: error= 6.78D-08 at cycle  10 NSaved=  10.
 NSaved=10 IEnMin=10 EnMin= -357.040902394210     IErMin=10 ErrMin= 6.78D-08
 ErrMax= 6.78D-08 EMaxC= 1.00D-01 BMatC= 1.15D-12 BMatP= 4.51D-11
 IDIUse=1 WtCom= 1.00D+00 WtEn= 0.00D+00
 Coeff-Com: -0.839D-06-0.380D-05-0.281D-04 0.407D-04 0.299D-03 0.191D-02
 Coeff-Com: -0.113D-02-0.376D-01-0.411D-01 0.108D+01
 Coeff:     -0.839D-06-0.380D-05-0.281D-04 0.407D-04 0.299D-03 0.191D-02
 Coeff:     -0.113D-02-0.376D-01-0.411D-01 0.108D+01
 Gap=     0.484 Goal=   None    Shift=    0.000
 RMSDP=7.78D-09 MaxDP=3.31D-07 DE=-6.04D-11 OVMax= 4.37D-07

 Error on total polarization charges =  0.02356
 SCF Done:  E(RM052X) =  -357.040902394     A.U. after   10 cycles
             Convg  =    0.7784D-08             -V/T =  2.0055
 KE= 3.550822285041D+02 PE=-1.370136883843D+03 EE= 3.933222852570D+02
 SMD-CDS (non-electrostatic) energy             (kcal/mol) =      -1.25
 (included in total energy above)
 Leave Link  502 at Sun Jan 19 14:01:06 2014, MaxMem= 2147483648 cpu:    1584.9
 (Enter /home/ik1r11/g09/l801.exe)
 Range of M.O.s used for correlation:     1   292
 NBasis=   292 NAE=    25 NBE=    25 NFC=     0 NFV=     0
 NROrb=    292 NOA=    25 NOB=    25 NVA=   267 NVB=   267
 Leave Link  801 at Sun Jan 19 14:01:07 2014, MaxMem= 2147483648 cpu:       0.3
 (Enter /home/ik1r11/g09/l1101.exe)
 Using compressed storage, NAtomX=    14.
 Will process  15 centers per pass.
 Leave Link 1101 at Sun Jan 19 14:01:09 2014, MaxMem= 2147483648 cpu:      16.5
 (Enter /home/ik1r11/g09/l1102.exe)
 Symmetrizing basis deriv contribution to polar:
 IMax=3 JMax=2 DiffMx= 0.00D+00
 Leave Link 1102 at Sun Jan 19 14:01:09 2014, MaxMem= 2147483648 cpu:       1.5
 (Enter /home/ik1r11/g09/l1110.exe)
 Forming Gx(P) for the SCF density, NAtomX=    14.
 Integral derivatives from FoFDir/FoFCou, PRISM(SPDF).
 Do as many integral derivatives as possible in FoFDir.
 G2DrvN: MDV=    2147483432.
 G2DrvN: will do    15 centers at a time, making    1 passes doing MaxLOS=3.
 Calling FoFCou, ICntrl=  3107 FMM=F I1Cent=   0 AccDes= 0.00D+00.
 FoFCou: FMM=F IPFlag=           0 FMFlag=      100000 FMFlg1=           0
         NFxFlg=           0 DoJE=F BraDBF=F KetDBF=F FulRan=T
         Omega=  0.000000  0.000000  1.000000  0.000000  0.000000 ICntrl=    3107 IOpCl=  0
         NMat0=    1 NMatS0=    1 NMatT0=    0 NMatD0=    1 NMtDS0=    0 NMtDT0=    0
         I1Cent=           0 NGrid=           0.
 Symmetry not used in FoFCou.
 FoFDir/FoFCou used for L=0 through L=3.
 G2PCM: DoFxE=T DoFxN=T DoGrad=T DoPD/DQ/DG=FFF NFrqRd=   0 IEInf=0 DoCFld=F IF1Alg=4.
 GePol: Maximum number of non-zero 1st derivatives   =     233
 End of G2Drv Frequency-dependent properties file   721 does not exist.
 End of G2Drv Frequency-dependent properties file   722 does not exist.
 Leave Link 1110 at Sun Jan 19 14:06:11 2014, MaxMem= 2147483648 cpu:    3622.2
 (Enter /home/ik1r11/g09/l1002.exe)
 Minotr:  Closed shell wavefunction.
          IDoAtm=11111111111111
 NEqPCM:  Using equilibrium solvation (IEInf=0, Eps=   4.7113, EpsInf=   2.0906)
          Direct CPHF calculation.
          Differentiating once with respect to electric field.
                with respect to dipole field.
          Differentiating once with respect to nuclear coordinates.
          Requested convergence is 1.0D-08 RMS, and 1.0D-07 maximum.
          Secondary convergence is 1.0D-12 RMS, and 1.0D-12 maximum.
          NewPWx=T KeepS1=F KeepF1=F KeepIn=T MapXYZ=F SortEE=F KeepMc=T.
          MDV=    2147483504 using IRadAn=       1.
 Generate precomputed XC quadrature information.
          Keep R1 ints in memory in canonical form, NReq=1493372558.
 Symmetry not used in FoFDir.
 MinBra= 0 MaxBra= 3 Meth= 1.
 IRaf=       0 NMat=   1 IRICut=       1 DoRegI=T DoRafI=F ISym2E= 0 JSym2E=0.
          Solving linear equations simultaneously, MaxMat=       0.
          There are    45 degrees of freedom in the 1st order CPHF.  IDoFFX=5.
     42 vectors produced by pass  0 Test12= 1.48D-14 2.22D-09 XBig12= 1.84D+01 1.19D+00.
 AX will form    42 AO Fock derivatives at one time.
     42 vectors produced by pass  1 Test12= 1.48D-14 2.22D-09 XBig12= 1.25D+00 1.66D-01.
     42 vectors produced by pass  2 Test12= 1.48D-14 2.22D-09 XBig12= 1.80D-02 2.03D-02.
     42 vectors produced by pass  3 Test12= 1.48D-14 2.22D-09 XBig12= 1.49D-04 1.43D-03.
     42 vectors produced by pass  4 Test12= 1.48D-14 2.22D-09 XBig12= 9.13D-07 1.75D-04.
     42 vectors produced by pass  5 Test12= 1.48D-14 2.22D-09 XBig12= 4.87D-09 1.12D-05.
     23 vectors produced by pass  6 Test12= 1.48D-14 2.22D-09 XBig12= 1.82D-11 4.90D-07.
      4 vectors produced by pass  7 Test12= 1.48D-14 2.22D-09 XBig12= 6.80D-14 3.32D-08.
      1 vectors produced by pass  8 Test12= 1.48D-14 2.22D-09 XBig12= 3.08D-16 2.38D-09.
 Inverted reduced A of dimension   280 with in-core refinement.
 FullF1:  Do perturbations    1 to     3.
 Isotropic polarizability for W=    0.000000       58.33 Bohr**3.
 End of Minotr Frequency-dependent properties file   721 does not exist.
 End of Minotr Frequency-dependent properties file   722 does not exist.
 Leave Link 1002 at Sun Jan 19 14:12:58 2014, MaxMem= 2147483648 cpu:    4879.3
 (Enter /home/ik1r11/g09/l601.exe)
 Copying SCF densities to generalized density rwf, IOpCl= 0 IROHF=0.

 **********************************************************************

            Population analysis using the SCF density.

 **********************************************************************

 Orbital symmetries:
       Occupied  (A) (A) (A) (A) (A) (A) (A) (A) (A) (A) (A) (A)
                 (A) (A) (A) (A) (A) (A) (A) (A) (A) (A) (A) (A)
                 (A)
       Virtual   (A) (A) (A) (A) (A) (A) (A) (A) (A) (A) (A) (A)
                 (A) (A) (A) (A) (A) (A) (A) (A) (A) (A) (A) (A)
                 (A) (A) (A) (A) (A) (A) (A) (A) (A) (A) (A) (A)
                 (A) (A) (A) (A) (A) (A) (A) (A) (A) (A) (A) (A)
                 (A) (A) (A) (A) (A) (A) (A) (A) (A) (A) (A) (A)
                 (A) (A) (A) (A) (A) (A) (A) (A) (A) (A) (A) (A)
                 (A) (A) (A) (A) (A) (A) (A) (A) (A) (A) (A) (A)
                 (A) (A) (A) (A) (A) (A) (A) (A) (A) (A) (A) (A)
                 (A) (A) (A) (A) (A) (A) (A) (A) (A) (A) (A) (A)
                 (A) (A) (A) (A) (A) (A) (A) (A) (A) (A) (A) (A)
                 (A) (A) (A) (A) (A) (A) (A) (A) (A) (A) (A) (A)
                 (A) (A) (A) (A) (A) (A) (A) (A) (A) (A) (A) (A)
                 (A) (A) (A) (A) (A) (A) (A) (A) (A) (A) (A) (A)
                 (A) (A) (A) (A) (A) (A) (A) (A) (A) (A) (A) (A)
                 (A) (A) (A) (A) (A) (A) (A) (A) (A) (A) (A) (A)
                 (A) (A) (A) (A) (A) (A) (A) (A) (A) (A) (A) (A)
                 (A) (A) (A) (A) (A) (A) (A) (A) (A) (A) (A) (A)
                 (A) (A) (A) (A) (A) (A) (A) (A) (A) (A) (A) (A)
                 (A) (A) (A) (A) (A) (A) (A) (A) (A) (A) (A) (A)
                 (A) (A) (A) (A) (A) (A) (A) (A) (A) (A) (A) (A)
                 (A) (A) (A) (A) (A) (A) (A) (A) (A) (A) (A) (A)
                 (A) (A) (A) (A) (A) (A) (A) (A) (A) (A) (A) (A)
                 (A) (A) (A)
 The electronic state is 1-A.
 Alpha  occ. eigenvalues --  -25.27686 -25.27686 -10.64584 -10.64542 -10.55309
 Alpha  occ. eigenvalues --  -10.55309  -1.33715  -1.33086  -0.91505  -0.84536
 Alpha  occ. eigenvalues --   -0.76620  -0.68309  -0.60998  -0.60692  -0.59420
 Alpha  occ. eigenvalues --   -0.55048  -0.53423  -0.50159  -0.49133  -0.46912
 Alpha  occ. eigenvalues --   -0.45857  -0.45140  -0.43778  -0.39801  -0.39019
 Alpha virt. eigenvalues --    0.09358   0.11468   0.12132   0.12902   0.16118
 Alpha virt. eigenvalues --    0.16587   0.17029   0.17951   0.18128   0.22009
 Alpha virt. eigenvalues --    0.24697   0.24807   0.28364   0.29886   0.32274
 Alpha virt. eigenvalues --    0.33693   0.35453   0.38679   0.40553   0.42561
 Alpha virt. eigenvalues --    0.46315   0.46981   0.48858   0.50505   0.50732
 Alpha virt. eigenvalues --    0.50791   0.51985   0.53005   0.54352   0.54575
 Alpha virt. eigenvalues --    0.56102   0.56153   0.57971   0.59373   0.64977
 Alpha virt. eigenvalues --    0.66318   0.68910   0.71985   0.76854   0.77717
 Alpha virt. eigenvalues --    0.82369   0.84321   0.84664   0.89873   0.90865
 Alpha virt. eigenvalues --    0.90936   0.95282   0.96865   0.97309   0.97524
 Alpha virt. eigenvalues --    1.00674   1.04293   1.06588   1.06769   1.10039
 Alpha virt. eigenvalues --    1.10733   1.11503   1.14079   1.14437   1.17166
 Alpha virt. eigenvalues --    1.19513   1.19686   1.20188   1.21574   1.24367
 Alpha virt. eigenvalues --    1.26993   1.29532   1.31611   1.34074   1.35208
 Alpha virt. eigenvalues --    1.35633   1.38797   1.39811   1.40767   1.42004
 Alpha virt. eigenvalues --    1.44143   1.45685   1.49619   1.50771   1.51841
 Alpha virt. eigenvalues --    1.54200   1.60439   1.61054   1.65603   1.66493
 Alpha virt. eigenvalues --    1.68189   1.77717   1.90753   2.01395   2.02894
 Alpha virt. eigenvalues --    2.11395   2.12481   2.17877   2.19969   2.20708
 Alpha virt. eigenvalues --    2.21451   2.30207   2.35064   2.39477   2.39709
 Alpha virt. eigenvalues --    2.42380   2.44876   2.48207   2.52169   2.53315
 Alpha virt. eigenvalues --    2.53915   2.55790   2.56757   2.59611   2.65703
 Alpha virt. eigenvalues --    2.65798   2.66605   2.67526   2.73479   2.77069
 Alpha virt. eigenvalues --    2.77327   2.80121   2.85077   2.87485   2.88995
 Alpha virt. eigenvalues --    2.90187   2.93201   2.95323   2.98538   2.99062
 Alpha virt. eigenvalues --    3.01023   3.03736   3.04185   3.05949   3.09652
 Alpha virt. eigenvalues --    3.11512   3.12490   3.13860   3.14888   3.16537
 Alpha virt. eigenvalues --    3.16666   3.22458   3.23242   3.24760   3.25699
 Alpha virt. eigenvalues --    3.29691   3.29767   3.32831   3.32890   3.36460
 Alpha virt. eigenvalues --    3.38405   3.41438   3.42184   3.43025   3.45619
 Alpha virt. eigenvalues --    3.49540   3.51093   3.54020   3.54241   3.55671
 Alpha virt. eigenvalues --    3.59128   3.60415   3.63323   3.64443   3.68195
 Alpha virt. eigenvalues --    3.72248   3.72478   3.72779   3.80256   3.82512
 Alpha virt. eigenvalues --    3.82770   3.83680   3.85474   3.88091   3.88901
 Alpha virt. eigenvalues --    3.90323   3.90564   3.93047   3.95949   3.97077
 Alpha virt. eigenvalues --    3.99600   4.03468   4.04572   4.06073   4.06589
 Alpha virt. eigenvalues --    4.09169   4.10403   4.13306   4.13964   4.15831
 Alpha virt. eigenvalues --    4.20260   4.25726   4.26810   4.27989   4.29545
 Alpha virt. eigenvalues --    4.33733   4.33806   4.36504   4.40454   4.45969
 Alpha virt. eigenvalues --    4.47090   4.52445   4.53204   4.65197   4.69856
 Alpha virt. eigenvalues --    4.82541   4.84516   4.85054   4.87444   4.87534
 Alpha virt. eigenvalues --    4.90344   4.92228   4.95514   4.98864   5.02930
 Alpha virt. eigenvalues --    5.06305   5.06394   5.10689   5.17578   5.17888
 Alpha virt. eigenvalues --    5.19064   5.21952   5.25988   5.27110   5.31522
 Alpha virt. eigenvalues --    5.33301   5.34753   5.39995   5.41799   5.43290
 Alpha virt. eigenvalues --    5.44718   5.50479   5.53931   5.54142   5.58933
 Alpha virt. eigenvalues --    5.76444   5.83048   5.85515   5.86881   5.95709
 Alpha virt. eigenvalues --    6.08656   6.09959   6.92104   6.92585   6.92864
 Alpha virt. eigenvalues --    6.93378   7.01112   7.02891   7.05805   7.06254
 Alpha virt. eigenvalues --    7.22227   7.24187   7.25180   7.30940   7.34636
 Alpha virt. eigenvalues --    7.34917   8.38909   8.41107   8.41150   8.46316
 Alpha virt. eigenvalues --    8.82762   8.87673   8.87938   8.89375   8.98469
 Alpha virt. eigenvalues --    8.98843  11.28307  11.99136  12.13168  12.24470
 Alpha virt. eigenvalues --   13.69157  13.89378
          Condensed to atoms (all electrons):
              1          2          3          4          5          6
     1  C    4.748182   0.270662   0.437151   0.325309  -0.039552  -0.048461
     2  F    0.270662   9.100508  -0.027708  -0.039552   0.000930   0.002189
     3  H    0.437151  -0.027708   0.580723  -0.048459   0.002189  -0.012629
     4  C    0.325309  -0.039552  -0.048459   4.748176   0.270665   0.437151
     5  F   -0.039552   0.000930   0.002189   0.270665   9.100506  -0.027709
     6  H   -0.048461   0.002189  -0.012629   0.437151  -0.027709   0.580727
     7  C   -0.045656   0.000799   0.010164   0.307990  -0.039343  -0.053248
     8  H    0.003251   0.008195   0.000511  -0.039387   0.003514   0.001014
     9  H   -0.011744   0.000093  -0.000439  -0.025649   0.000370   0.006298
    10  H    0.006984  -0.000176  -0.000187  -0.029205   0.000623  -0.008700
    11  C    0.307990  -0.039343  -0.053248  -0.045656   0.000800   0.010164
    12  H   -0.039386   0.003514   0.001013   0.003250   0.008194   0.000511
    13  H   -0.025649   0.000370   0.006298  -0.011744   0.000093  -0.000439
    14  H   -0.029205   0.000623  -0.008700   0.006984  -0.000176  -0.000187
              7          8          9         10         11         12
     1  C   -0.045656   0.003251  -0.011744   0.006984   0.307990  -0.039386
     2  F    0.000799   0.008195   0.000093  -0.000176  -0.039343   0.003514
     3  H    0.010164   0.000511  -0.000439  -0.000187  -0.053248   0.001013
     4  C    0.307990  -0.039387  -0.025649  -0.029205  -0.045656   0.003250
     5  F   -0.039343   0.003514   0.000370   0.000623   0.000800   0.008194
     6  H   -0.053248   0.001014   0.006298  -0.008700   0.010164   0.000511
     7  C    4.974414   0.383044   0.398610   0.407111  -0.016041  -0.002032
     8  H    0.383044   0.581481  -0.032474  -0.027887  -0.002032   0.000240
     9  H    0.398610  -0.032474   0.580846  -0.033240   0.003750   0.001184
    10  H    0.407111  -0.027887  -0.033240   0.564984  -0.000326  -0.000181
    11  C   -0.016041  -0.002032   0.003750  -0.000326   4.974410   0.383044
    12  H   -0.002032   0.000240   0.001184  -0.000181   0.383044   0.581483
    13  H    0.003751   0.001184  -0.005212   0.000205   0.398611  -0.032474
    14  H   -0.000326  -0.000181   0.000204   0.000031   0.407111  -0.027887
             13         14
     1  C   -0.025649  -0.029205
     2  F    0.000370   0.000623
     3  H    0.006298  -0.008700
     4  C   -0.011744   0.006984
     5  F    0.000093  -0.000176
     6  H   -0.000439  -0.000187
     7  C    0.003751  -0.000326
     8  H    0.001184  -0.000181
     9  H   -0.005212   0.000204
    10  H    0.000205   0.000031
    11  C    0.398611   0.407111
    12  H   -0.032474  -0.027887
    13  H    0.580846  -0.033240
    14  H   -0.033240   0.564983
 Mulliken atomic charges:
              1
     1  C    0.140125
     2  F   -0.281106
     3  H    0.113321
     4  C    0.140128
     5  F   -0.281106
     6  H    0.113320
     7  C   -0.329237
     8  H    0.119528
     9  H    0.117402
    10  H    0.119964
    11  C   -0.329234
    12  H    0.119527
    13  H    0.117402
    14  H    0.119965
 Sum of Mulliken atomic charges =   0.00000
 Mulliken charges with hydrogens summed into heavy atoms:
              1
     1  C    0.253446
     2  F   -0.281106
     4  C    0.253448
     5  F   -0.281106
     7  C    0.027657
    11  C    0.027660
 Sum of Mulliken charges with hydrogens summed into heavy atoms =   0.00000
 APT atomic charges:
              1
     1  C    0.687770
     2  F   -0.651709
     3  H   -0.039353
     4  C    0.687773
     5  F   -0.651707
     6  H   -0.039354
     7  C   -0.067196
     8  H    0.041136
     9  H    0.017764
    10  H    0.011586
    11  C   -0.067195
    12  H    0.041134
    13  H    0.017764
    14  H    0.011586
 Sum of APT charges=   0.00000
 APT Atomic charges with hydrogens summed into heavy atoms:
              1
     1  C    0.648417
     2  F   -0.651709
     3  H    0.000000
     4  C    0.648420
     5  F   -0.651707
     6  H    0.000000
     7  C    0.003290
     8  H    0.000000
     9  H    0.000000
    10  H    0.000000
    11  C    0.003289
    12  H    0.000000
    13  H    0.000000
    14  H    0.000000
 Sum of APT charges=   0.00000
 Electronic spatial extent (au):  <R**2>=            596.1720
 Charge=              0.0000 electrons
 Dipole moment (field-independent basis, Debye):
    X=              0.0000    Y=              0.0000    Z=              0.7270  Tot=              0.7270
 Quadrupole moment (field-independent basis, Debye-Ang):
   XX=            -39.6988   YY=            -37.0762   ZZ=            -34.5381
   XY=              5.8977   XZ=              0.0000   YZ=              0.0000
 Traceless Quadrupole moment (field-independent basis, Debye-Ang):
   XX=             -2.5944   YY=              0.0282   ZZ=              2.5662
   XY=              5.8977   XZ=              0.0000   YZ=              0.0000
 Octapole moment (field-independent basis, Debye-Ang**2):
  XXX=             -0.0002  YYY=             -0.0001  ZZZ=             -8.5132  XYY=              0.0000
  XXY=              0.0001  XXZ=              0.3179  XZZ=              0.0001  YZZ=             -0.0001
  YYZ=             -0.8420  XYZ=             -3.0676
 Hexadecapole moment (field-independent basis, Debye-Ang**3):
 XXXX=           -348.6386 YYYY=           -198.6895 ZZZZ=           -150.9100 XXXY=             -1.2009
 XXXZ=              0.0000 YYYX=            -16.4287 YYYZ=             -0.0001 ZZZX=              0.0002
 ZZZY=              0.0000 XXYY=            -93.8883 XXZZ=            -84.9722 YYZZ=            -59.5035
 XXYZ=             -0.0001 YYXZ=              0.0000 ZZXY=             -4.9399
 N-N= 2.646914676878D+02 E-N=-1.370136885999D+03  KE= 3.550822285041D+02
  Exact polarizability:  59.046   2.381  58.576   0.000   0.000  57.367
 Approx polarizability:  53.465  -1.171  55.307   0.000   0.000  52.462
 No NMR shielding tensors so no spin-rotation constants.
 Leave Link  601 at Sun Jan 19 14:13:00 2014, MaxMem= 2147483648 cpu:      12.7
 (Enter /home/ik1r11/g09/l701.exe)
 Compute integral second derivatives.
 ... and contract with generalized density number  0.
 D2PCM: PCM CHGder 2nd derivatives, FixD1E=F FixD2E=F DoIter=F DoCFld=F I1PDM=0
 GePol: Maximum number of non-zero 2nd derivatives   =     233
 Leave Link  701 at Sun Jan 19 14:13:17 2014, MaxMem= 2147483648 cpu:     204.8
 (Enter /home/ik1r11/g09/l702.exe)
 L702 exits ... SP integral derivatives will be done elsewhere.
 Leave Link  702 at Sun Jan 19 14:13:17 2014, MaxMem= 2147483648 cpu:       0.3
 (Enter /home/ik1r11/g09/l703.exe)
 Compute integral second derivatives, UseDBF=F ICtDFT=           0.
 Integral derivatives from FoFDir, PRISM(SPDF).
 Calling FoFJK, ICntrl=    100127 FMM=F ISym2X=0 I1Cent= 0 IOpClX= 0 NMat=1 NMatS=1 NMatT=0.
 FoFCou: FMM=F IPFlag=           0 FMFlag=      100000 FMFlg1=         800
         NFxFlg=           0 DoJE=F BraDBF=F KetDBF=F FulRan=T
         Omega=  0.000000  0.000000  1.000000  0.000000  0.000000 ICntrl=  100127 IOpCl=  0
         NMat0=    1 NMatS0=    1 NMatT0=    0 NMatD0=    1 NMtDS0=    0 NMtDT0=    0
         I1Cent=           0 NGrid=           0.
 Symmetry not used in FoFCou.
 Leave Link  703 at Sun Jan 19 14:19:11 2014, MaxMem= 2147483648 cpu:    4244.7
 (Enter /home/ik1r11/g09/l716.exe)
 Dipole        =-1.38589400D-05-3.67467949D-06 2.86033726D-01
 Polarizability= 5.90459563D+01 2.38128405D+00 5.85759656D+01
                -2.16539221D-05 9.29638435D-06 5.73669038D+01
 Full mass-weighted force constant matrix:
 Low frequencies ---  -16.6226   -5.6138    0.0012    0.0013    0.0013   14.1068
 Low frequencies ---   90.3239  206.9821  242.3268
 Diagonal vibrational polarizability:
       10.2308772       9.0843039      28.4406624

 rotorrotorrotorrotorrotorrotorrotorrotorrotorrotorrotor

           Hindered Internal Rotation Analysis

 rotorrotorrotorrotorrotorrotorrotorrotorrotorrotorrotor

 Internal coordinate list sorted
 Checking for planar centers
 Checking for ring deformation
 Checking reduced barrier height
 Cut-off : V/RT =     33.756
 Number of internal rotation degrees of freedom =             3
 Checking correspondance between vibrational and internal rotation modes
 Frequencies in cm**-1
                             1         2         3
       Frequencies ---    92.6742  224.1814  287.8533
           90.3218        -0.9991   -0.0001   -0.1682
          206.9645        -0.0001   -0.9920    0.0000
          242.3183        -0.1288   -0.0001   -0.9899
          250.7492         0.0000    0.9641   -0.0002
          312.1286         0.1627    0.0000    0.9884
          378.6991         0.3535    0.0000   -0.0796
          416.8643         0.0000    0.3943    0.0000
          513.2397         0.0085    0.0000   -0.2060
 ----------------------------------------------------------------------------
 Identification of rotating group for bond      1 -      4
 Iteration  1 RMS(Cart)=  0.11548025 RMS(Int)=  0.02400986
 Iteration  2 RMS(Cart)=  0.03682403 RMS(Int)=  0.00053120
 Iteration  3 RMS(Cart)=  0.00074728 RMS(Int)=  0.00000010
 Iteration  4 RMS(Cart)=  0.00000023 RMS(Int)=  0.00000000
 Iteration  1 RMS(Cart)=  0.00000000 RMS(Int)=  0.00000000
 Composition of rotating group : 
       5       6       7       8       9      10
 Geometrical symmetry number =   1
 Identification of rotating group for bond      1 -     11
 Iteration  1 RMS(Cart)=  0.07931037 RMS(Int)=  0.02477151
 Iteration  2 RMS(Cart)=  0.02635406 RMS(Int)=  0.00073760
 Iteration  3 RMS(Cart)=  0.00075638 RMS(Int)=  0.00000039
 Iteration  4 RMS(Cart)=  0.00000044 RMS(Int)=  0.00000000
 Iteration  1 RMS(Cart)=  0.00000000 RMS(Int)=  0.00000000
 Composition of rotating group : 
      12      13      14
 Geometrical symmetry number =   3
 Identification of rotating group for bond      4 -      7
 Iteration  1 RMS(Cart)=  0.07931039 RMS(Int)=  0.02477152
 Iteration  2 RMS(Cart)=  0.02635407 RMS(Int)=  0.00073760
 Iteration  3 RMS(Cart)=  0.00075638 RMS(Int)=  0.00000039
 Iteration  4 RMS(Cart)=  0.00000044 RMS(Int)=  0.00000000
 Iteration  1 RMS(Cart)=  0.00000000 RMS(Int)=  0.00000000
 Composition of rotating group : 
       8       9      10
 Geometrical symmetry number =   3
 Checking constant moment of inertia assumption for bond       1 -       4
  Free rotor partition function: Estimated error   =   -3.481 %
  External rot. free rotor partition function: Estimated error   =  -20.075 %
 Checking steric hindrance using Lennard-Jones Potential
 Checking potential periodicity 
  No minimum about Phi = 120.00 degrees 
  Well about Phi = 120.00 degrees is not accessible : (V-V0)/RT = ********
 Number of accessible wells :   2
 Checking constant moment of inertia assumption for bond       1 -      11
  Free rotor partition function: Estimated error   =   -6.205 %
  External rot. free rotor partition function: Estimated error   =  -11.744 %
 Checking constant moment of inertia assumption for bond       4 -       7
  Free rotor partition function: Estimated error   =  -14.498 %
  External rot. free rotor partition function: Estimated error   =   -2.330 %

    Rotor          Bond     Periodicity   Symmetry Number  Multiplicity
       1)        1       4       3               1                2
       2)        1      11       3               3                1
       3)        4       7       3               3                1
 Normal Mode Analysis for Internal Rotation 
 frequencies (cm**-1), reduced moment of inertia (amu*Bohr**2)
                           1         2         3
       Frequencies ---    92.6742  224.1814  287.8533
   Reduced Moments ---    11.1979    1.2358    1.2017
     Bond
         1 -       4       0.9733    0.0000   -0.0708
         1 -      11       0.1624   -0.7071    0.7053
         4 -       7       0.1623    0.7071    0.7053

 --------------------------------------------------
 - Thermochemistry For Hindered Internal Rotation -
 --------------------------------------------------
 Temperature    298.150 Kelvin. Pressure    1.00000 Atm.

                           Q                Freq               V/RT
                      (Free Rot.)         (cm**-1)
 Vibration     1         11.291            90.322             7.709
 Vibration     2          3.960           206.964             4.979
 Vibration     3          4.282           242.318             7.982

 Corrections for hindered rotation 
 To obtain partition function for hindered rotation :
                     Multiply with harmonic oscillator partition function
 To obtain thermodynamic function for hindered rotation :
                     Add to harmonic oscillator partition function

                          Q(harm. osc.) =       1.768
 Q(hin.)/Q(harm. osc.)   Truhlar        Pitzer & Gwinn       McClurg 
 Vibration     1          1.000             1.040             1.041
 Vibration     2          0.999             1.071             1.084
 Vibration     3          1.000             1.038             1.049
 Multiplicity             2.000             2.000             2.000
 Total                    1.998             2.310             2.367

                          E(harm. osc.) =       1.901 Kcal/mol
 E(hin.)-E(harm. osc.)   Truhlar        Pitzer & Gwinn       McClurg 
                        Kcal/mol          Kcal/mol          Kcal/mol
 Vibration     1          0.000             0.029             0.028
 Vibration     2         -0.002             0.052             0.045
 Vibration     3          0.000             0.027             0.021
 Total                   -0.002             0.108             0.094

                          S(harm. osc.) =       7.509 cal/mol-Kelvin
 S(hin.)-S(harm. osc.)   Truhlar        Pitzer & Gwinn       McClurg 
                       cal/mol-Kelvin    cal/mol-Kelvin    cal/mol-Kelvin
 Vibration     1         -0.001             0.174             0.174
 Vibration     2         -0.007             0.310             0.310
 Vibration     3         -0.001             0.165             0.165
 Multiplicity             1.377             1.377             1.377
 Total                    1.368             2.027             2.027

                          Cv(harm. osc.) =       5.561 cal/mol-Kelvin
 Cv(hin.)-Cv(harm. osc)  Truhlar        Pitzer & Gwinn       McClurg 
                       cal/mol-Kelvin    cal/mol-Kelvin    cal/mol-Kelvin
 Vibration     1         -0.006             0.242             0.242
 Vibration     2         -0.026             0.358             0.358
 Vibration     3         -0.005             0.230             0.230
 Total                   -0.036             0.830             0.830
 Harmonic frequencies (cm**-1), IR intensities (KM/Mole), Raman scattering
 activities (A**4/AMU), depolarization ratios for plane and unpolarized
 incident light, reduced masses (AMU), force constants (mDyne/A),
 and normal coordinates:
                     1                      2                      3
                     A                      A                      A
 Frequencies --    90.3218               206.9645               242.3183
 Red. masses --     3.4921                 1.2493                 1.5533
 Frc consts  --     0.0168                 0.0315                 0.0537
 IR Inten    --     7.5036                 4.7514                 0.5076
  Atom  AN      X      Y      Z        X      Y      Z        X      Y      Z
     1   6    -0.02   0.05  -0.11    -0.01  -0.04   0.01     0.00  -0.03   0.05
     2   9     0.06   0.14   0.32     0.06   0.02   0.01    -0.04  -0.06  -0.03
     3   1    -0.17   0.32  -0.25    -0.06  -0.04   0.02     0.08  -0.05   0.05
     4   6     0.02  -0.05  -0.11    -0.01  -0.04  -0.01     0.00   0.03   0.05
     5   9    -0.06  -0.14   0.32     0.06   0.02  -0.01     0.04   0.06  -0.03
     6   1     0.17  -0.32  -0.25    -0.06  -0.04  -0.02    -0.08   0.05   0.05
     7   6    -0.07   0.30  -0.29    -0.06   0.01  -0.02     0.15   0.04  -0.01
     8   1     0.05   0.45  -0.69    -0.37  -0.26   0.19     0.49   0.33  -0.22
     9   1    -0.30   0.62  -0.07     0.33  -0.11  -0.09    -0.17   0.22   0.11
    10   1     0.01   0.10  -0.26    -0.22   0.41  -0.15     0.30  -0.40   0.00
    11   6     0.07  -0.30  -0.29    -0.06   0.01   0.02    -0.15  -0.04  -0.01
    12   1    -0.05  -0.45  -0.69    -0.37  -0.26  -0.19    -0.49  -0.33  -0.22
    13   1     0.30  -0.62  -0.07     0.33  -0.11   0.09     0.17  -0.22   0.11
    14   1    -0.01  -0.10  -0.26    -0.22   0.41   0.15    -0.30   0.40   0.00
                     4                      5                      6
                     A                      A                      A
 Frequencies --   250.7492               312.1286               378.6991
 Red. masses --     2.6371                 1.5368                 4.6712
 Frc consts  --     0.0977                 0.0882                 0.3947
 IR Inten    --    10.6261                 0.3616                 7.5580
  Atom  AN      X      Y      Z        X      Y      Z        X      Y      Z
     1   6    -0.04  -0.13   0.05    -0.01  -0.01   0.03     0.09  -0.07   0.30
     2   9     0.22   0.07   0.13    -0.02  -0.01   0.03     0.46   0.06  -0.30
     3   1    -0.20  -0.08   0.05     0.06   0.03  -0.01     0.35  -0.18   0.32
     4   6    -0.04  -0.13  -0.05     0.01   0.01   0.03    -0.09   0.07   0.30
     5   9     0.22   0.07  -0.13     0.02   0.01   0.03    -0.46  -0.06  -0.30
     6   1    -0.20  -0.08  -0.05    -0.06  -0.03  -0.01    -0.35   0.18   0.32
     7   6    -0.22   0.00  -0.08     0.17   0.05  -0.06    -0.02   0.39   0.14
     8   1    -0.01   0.25  -0.55    -0.02  -0.15   0.24    -0.24   0.30  -0.23
     9   1    -0.73   0.26   0.07     0.62  -0.06  -0.11     0.15   0.79   0.43
    10   1    -0.07  -0.34   0.18     0.03   0.35  -0.36    -0.13   0.66  -0.06
    11   6    -0.22   0.00   0.08    -0.17  -0.05  -0.06     0.02  -0.39   0.14
    12   1    -0.01   0.25   0.54     0.02   0.15   0.24     0.24  -0.30  -0.23
    13   1    -0.73   0.26  -0.07    -0.62   0.06  -0.11    -0.15  -0.79   0.43
    14   1    -0.07  -0.34  -0.18    -0.03  -0.35  -0.36     0.13  -0.66  -0.06
                     7                      8                      9
                     A                      A                      A
 Frequencies --   416.8643               513.2397               585.0502
 Red. masses --     3.0328                 4.5404                 2.1900
 Frc consts  --     0.3105                 0.7047                 0.4417
 IR Inten    --    14.3772                 5.2921                 0.5017
  Atom  AN      X      Y      Z        X      Y      Z        X      Y      Z
     1   6    -0.27  -0.04   0.04     0.22  -0.29  -0.21     0.14   0.14   0.22
     2   9     0.09   0.21  -0.20     0.44  -0.31   0.20    -0.03   0.01  -0.05
     3   1    -0.40  -0.07   0.09     0.26  -0.28  -0.24     0.13  -0.04   0.34
     4   6    -0.27  -0.04  -0.04    -0.22   0.29  -0.21     0.14   0.14  -0.22
     5   9     0.09   0.21   0.20    -0.44   0.31   0.20    -0.03   0.01   0.05
     6   1    -0.40  -0.07  -0.09    -0.26   0.28  -0.24     0.13  -0.04  -0.34
     7   6     0.08  -0.20  -0.10    -0.01  -0.12  -0.08    -0.05  -0.09  -0.12
     8   1     0.46  -0.01   0.33     0.43   0.07   0.59    -0.18  -0.21   0.05
     9   1     0.24  -0.39  -0.23     0.00  -0.65  -0.46    -0.39  -0.49  -0.43
    10   1     0.18  -0.58  -0.42     0.14  -0.57  -0.15    -0.01  -0.03   0.43
    11   6     0.08  -0.20   0.10     0.01   0.12  -0.08    -0.05  -0.09   0.12
    12   1     0.46  -0.01  -0.33    -0.43  -0.07   0.59    -0.18  -0.21  -0.05
    13   1     0.24  -0.39   0.23     0.00   0.65  -0.46    -0.39  -0.49   0.43
    14   1     0.18  -0.58   0.42    -0.14   0.57  -0.15    -0.01  -0.03  -0.43
                    10                     11                     12
                     A                      A                      A
 Frequencies --   830.8375               906.7289               950.0874
 Red. masses --     2.5224                 2.0809                 1.8797
 Frc consts  --     1.0259                 1.0080                 0.9997
 IR Inten    --     0.1161                49.2249                 4.6638
  Atom  AN      X      Y      Z        X      Y      Z        X      Y      Z
     1   6     0.12   0.17   0.20     0.12  -0.06  -0.07     0.15  -0.05   0.02
     2   9     0.02  -0.09   0.02    -0.08   0.13  -0.03    -0.07   0.11  -0.02
     3   1     0.30  -0.02   0.28     0.19   0.20  -0.24     0.12   0.01   0.01
     4   6    -0.12  -0.17   0.20     0.12  -0.06   0.07    -0.15   0.05   0.02
     5   9    -0.02   0.09   0.02    -0.08   0.13   0.03     0.07  -0.11  -0.02
     6   1    -0.30   0.02   0.28     0.19   0.20   0.24    -0.12  -0.01   0.01
     7   6    -0.10  -0.21  -0.16     0.02  -0.17  -0.09    -0.13   0.06   0.02
     8   1    -0.12  -0.15  -0.55    -0.26  -0.27  -0.70     0.32   0.31   0.47
     9   1     0.15   0.24   0.17     0.02   0.26   0.22     0.22  -0.09  -0.07
    10   1    -0.19  -0.14  -0.65    -0.11   0.16  -0.19    -0.04  -0.38  -0.49
    11   6     0.10   0.21  -0.16     0.02  -0.17   0.09     0.13  -0.06   0.02
    12   1     0.12   0.15  -0.55    -0.26  -0.27   0.70    -0.32  -0.31   0.47
    13   1    -0.15  -0.24   0.17     0.02   0.26  -0.22    -0.22   0.09  -0.07
    14   1     0.19   0.14  -0.65    -0.11   0.16   0.19     0.04   0.38  -0.49
                    13                     14                     15
                     A                      A                      A
 Frequencies --  1030.1647              1048.9774              1121.6792
 Red. masses --     1.4323                 2.1409                 2.2644
 Frc consts  --     0.8955                 1.3879                 1.6785
 IR Inten    --     9.4939               112.4827               189.0021
  Atom  AN      X      Y      Z        X      Y      Z        X      Y      Z
     1   6     0.05  -0.02   0.11     0.00   0.22  -0.07     0.21  -0.17   0.00
     2   9    -0.02   0.03  -0.01     0.06  -0.10   0.01    -0.08   0.09   0.02
     3   1     0.46   0.17  -0.09     0.38   0.38  -0.26     0.29  -0.26   0.04
     4   6    -0.05   0.02   0.11     0.00   0.22   0.07     0.21  -0.17   0.00
     5   9     0.02  -0.03  -0.01     0.06  -0.10  -0.01    -0.08   0.09  -0.02
     6   1    -0.46  -0.17  -0.09     0.38   0.38   0.26     0.29  -0.26  -0.04
     7   6     0.03   0.03  -0.10    -0.14  -0.07  -0.09    -0.15   0.08   0.00
     8   1    -0.13  -0.12   0.07     0.15   0.13  -0.02     0.30   0.30   0.47
     9   1    -0.28  -0.29  -0.34     0.19  -0.03  -0.06     0.28  -0.18  -0.16
    10   1     0.07   0.01   0.34    -0.13  -0.29  -0.65    -0.01  -0.45  -0.36
    11   6    -0.03  -0.03  -0.10    -0.14  -0.07   0.09    -0.15   0.07   0.00
    12   1     0.13   0.12   0.07     0.15   0.13   0.02     0.30   0.30  -0.46
    13   1     0.28   0.29  -0.34     0.19  -0.03   0.06     0.28  -0.18   0.16
    14   1    -0.07  -0.01   0.34    -0.13  -0.29   0.65    -0.01  -0.45   0.36
                    16                     17                     18
                     A                      A                      A
 Frequencies --  1121.8620              1183.5498              1228.3653
 Red. masses --     2.6138                 2.1484                 1.6973
 Frc consts  --     1.9382                 1.7731                 1.5089
 IR Inten    --     0.4264                 2.1510                 8.6792
  Atom  AN      X      Y      Z        X      Y      Z        X      Y      Z
     1   6    -0.08   0.36   0.02     0.03   0.04   0.27     0.14   0.08  -0.13
     2   9     0.05  -0.13  -0.03     0.00  -0.01  -0.02    -0.01   0.00   0.01
     3   1    -0.19   0.67  -0.17    -0.17   0.04   0.31     0.62   0.26  -0.35
     4   6     0.08  -0.36   0.02     0.03   0.04  -0.27    -0.14  -0.08  -0.13
     5   9    -0.05   0.13  -0.03     0.00  -0.01   0.02     0.01   0.00   0.01
     6   1     0.19  -0.67  -0.17    -0.17   0.04  -0.31    -0.62  -0.26  -0.35
     7   6    -0.07   0.13   0.01    -0.05  -0.08   0.16     0.05  -0.03   0.10
     8   1     0.19   0.20   0.58     0.19   0.17  -0.14     0.02  -0.01  -0.04
     9   1     0.08  -0.21  -0.21     0.35   0.44   0.56     0.03   0.27   0.32
    10   1     0.09  -0.27   0.10    -0.15   0.07  -0.31    -0.02   0.18   0.12
    11   6     0.07  -0.13   0.01    -0.05  -0.08  -0.16    -0.05   0.03   0.10
    12   1    -0.19  -0.20   0.59     0.19   0.17   0.14    -0.02   0.01  -0.04
    13   1    -0.08   0.21  -0.21     0.35   0.44  -0.56    -0.03  -0.27   0.32
    14   1    -0.09   0.27   0.10    -0.15   0.07   0.31     0.02  -0.18   0.12
                    19                     20                     21
                     A                      A                      A
 Frequencies --  1356.9773              1393.1730              1405.0332
 Red. masses --     1.1268                 1.2628                 1.2244
 Frc consts  --     1.2224                 1.4441                 1.4242
 IR Inten    --     8.7348                 0.1241                 3.0753
  Atom  AN      X      Y      Z        X      Y      Z        X      Y      Z
     1   6    -0.06   0.02   0.00    -0.04  -0.09   0.04     0.02   0.03  -0.03
     2   9     0.01   0.02   0.02     0.01  -0.01  -0.01     0.00   0.00   0.01
     3   1     0.56  -0.44   0.16    -0.10   0.56  -0.36    -0.17  -0.28   0.21
     4   6    -0.06   0.02   0.00     0.04   0.09   0.04     0.02   0.03   0.03
     5   9     0.01   0.02  -0.02    -0.01   0.01  -0.01     0.00   0.00  -0.01
     6   1     0.56  -0.44  -0.16     0.10  -0.56  -0.36    -0.17  -0.28  -0.21
     7   6     0.01  -0.02   0.00    -0.01  -0.02   0.06     0.02   0.03   0.09
     8   1     0.00  -0.03   0.03    -0.05   0.00  -0.27    -0.20  -0.06  -0.38
     9   1    -0.04   0.10   0.09     0.02  -0.13  -0.03    -0.07  -0.29  -0.15
    10   1    -0.02   0.07   0.00    -0.04  -0.05  -0.26     0.02  -0.15  -0.37
    11   6     0.01  -0.02   0.00     0.01   0.02   0.06     0.02   0.03  -0.09
    12   1     0.00  -0.03  -0.03     0.05   0.00  -0.27    -0.20  -0.06   0.38
    13   1    -0.04   0.10  -0.09    -0.02   0.13  -0.03    -0.07  -0.29   0.15
    14   1    -0.02   0.07   0.00     0.04   0.05  -0.26     0.02  -0.15   0.37
                    22                     23                     24
                     A                      A                      A
 Frequencies --  1408.0334              1428.6627              1459.9663
 Red. masses --     1.6650                 1.4326                 1.5308
 Frc consts  --     1.9448                 1.7228                 1.9225
 IR Inten    --     5.0817                40.6590                38.7304
  Atom  AN      X      Y      Z        X      Y      Z        X      Y      Z
     1   6     0.21   0.00   0.01     0.04   0.06  -0.05    -0.07  -0.08   0.12
     2   9    -0.01  -0.01  -0.01     0.00   0.00   0.01     0.00   0.00  -0.01
     3   1    -0.69   0.22   0.07     0.08  -0.24   0.13     0.48   0.42  -0.31
     4   6    -0.21   0.00   0.01    -0.04  -0.06  -0.05    -0.07  -0.08  -0.12
     5   9     0.01   0.01  -0.01     0.00   0.00   0.01     0.00   0.00   0.01
     6   1     0.69  -0.22   0.07    -0.08   0.24   0.13     0.48   0.42   0.31
     7   6     0.08   0.01  -0.02     0.04   0.09   0.10     0.04   0.08   0.06
     8   1    -0.19  -0.22   0.17    -0.33  -0.11  -0.37    -0.27  -0.12  -0.15
     9   1    -0.34   0.13   0.05    -0.07  -0.36  -0.24    -0.02  -0.16  -0.11
    10   1     0.05   0.06   0.01     0.11  -0.26  -0.28     0.12  -0.24  -0.10
    11   6    -0.08  -0.01  -0.02    -0.04  -0.09   0.10     0.04   0.08  -0.06
    12   1     0.19   0.22   0.17     0.33   0.11  -0.37    -0.27  -0.12   0.15
    13   1     0.34  -0.13   0.05     0.07   0.36  -0.24    -0.02  -0.16   0.11
    14   1    -0.05  -0.06   0.01    -0.11   0.26  -0.28     0.12  -0.24   0.10
                    25                     26                     27
                     A                      A                      A
 Frequencies --  1490.6755              1494.5746              1500.7426
 Red. masses --     1.0436                 1.0929                 1.0588
 Frc consts  --     1.3663                 1.4384                 1.4050
 IR Inten    --    11.8334                 5.4926                 7.3659
  Atom  AN      X      Y      Z        X      Y      Z        X      Y      Z
     1   6    -0.02  -0.01   0.00     0.05   0.03   0.00     0.00  -0.03   0.01
     2   9     0.00   0.00   0.00     0.00   0.00   0.00     0.00   0.00   0.00
     3   1     0.08   0.00  -0.03    -0.11  -0.02   0.07     0.05   0.09  -0.07
     4   6    -0.02  -0.01   0.00    -0.05  -0.03   0.00     0.00  -0.03  -0.01
     5   9     0.00   0.00   0.00     0.00   0.00   0.00     0.00   0.00   0.00
     6   1     0.08   0.00   0.03     0.11   0.02   0.07     0.05   0.09   0.07
     7   6    -0.03  -0.01   0.01     0.00  -0.02   0.02     0.02  -0.02   0.02
     8   1     0.23   0.24  -0.34     0.32   0.28  -0.24     0.23   0.14   0.07
     9   1     0.32  -0.25  -0.15     0.02  -0.27  -0.18    -0.39  -0.13  -0.09
    10   1    -0.05   0.18   0.25    -0.13   0.40   0.08    -0.16   0.39  -0.28
    11   6    -0.03  -0.01  -0.01     0.00   0.02   0.02     0.02  -0.02  -0.02
    12   1     0.23   0.24   0.34    -0.32  -0.28  -0.24     0.23   0.14  -0.07
    13   1     0.32  -0.25   0.15    -0.02   0.27  -0.18    -0.39  -0.13   0.09
    14   1    -0.05   0.18  -0.25     0.13  -0.40   0.08    -0.16   0.39   0.28
                    28                     29                     30
                     A                      A                      A
 Frequencies --  1518.7173              3105.6265              3108.3066
 Red. masses --     1.0866                 1.0349                 1.0350
 Frc consts  --     1.4766                 5.8809                 5.8915
 IR Inten    --     1.4442                 4.6231                 7.5793
  Atom  AN      X      Y      Z        X      Y      Z        X      Y      Z
     1   6     0.05  -0.01   0.00     0.00   0.00   0.00     0.00   0.00   0.00
     2   9     0.00   0.00   0.00     0.00   0.00   0.00     0.00   0.00   0.00
     3   1    -0.12   0.05   0.00     0.00  -0.01  -0.01     0.00   0.01   0.01
     4   6    -0.05   0.01   0.00     0.00   0.00   0.00     0.00   0.00   0.00
     5   9     0.00   0.00   0.00     0.00   0.00   0.00     0.00   0.00   0.00
     6   1     0.12  -0.05   0.00     0.00  -0.01   0.01     0.00  -0.01   0.01
     7   6    -0.03   0.01  -0.02     0.01   0.02   0.03    -0.01  -0.02  -0.03
     8   1    -0.08   0.00  -0.22     0.26  -0.34  -0.06    -0.27   0.35   0.06
     9   1     0.50   0.00   0.01     0.02   0.26  -0.34    -0.02  -0.24   0.32
    10   1     0.11  -0.22   0.40    -0.36  -0.12   0.05     0.37   0.13  -0.05
    11   6     0.03  -0.01  -0.02     0.01   0.02  -0.03     0.01   0.02  -0.03
    12   1     0.08   0.00  -0.22     0.26  -0.34   0.06     0.27  -0.35   0.06
    13   1    -0.50   0.00   0.01     0.02   0.26   0.34     0.02   0.24   0.32
    14   1    -0.11   0.22   0.40    -0.36  -0.12  -0.05    -0.37  -0.13  -0.05
                    31                     32                     33
                     A                      A                      A
 Frequencies --  3144.0380              3153.1689              3178.7915
 Red. masses --     1.0862                 1.0880                 1.1021
 Frc consts  --     6.3260                 6.3733                 6.5615
 IR Inten    --     9.7694                28.5924                21.4161
  Atom  AN      X      Y      Z        X      Y      Z        X      Y      Z
     1   6    -0.01  -0.03  -0.05    -0.01  -0.03  -0.05     0.00   0.00   0.00
     2   9     0.00   0.00   0.00     0.00   0.00   0.00     0.00   0.00   0.00
     3   1     0.12   0.38   0.59     0.13   0.37   0.59     0.01   0.02   0.04
     4   6    -0.01  -0.03   0.05     0.01   0.03  -0.05     0.00   0.00   0.00
     5   9     0.00   0.00   0.00     0.00   0.00   0.00     0.00   0.00   0.00
     6   1     0.12   0.38  -0.59    -0.13  -0.37   0.58     0.01   0.02  -0.04
     7   6     0.00   0.01  -0.01    -0.01  -0.01   0.01     0.06  -0.03   0.00
     8   1     0.05  -0.06  -0.01    -0.02   0.02   0.01    -0.33   0.45   0.08
     9   1    -0.01  -0.09   0.11     0.01   0.10  -0.13     0.02   0.11  -0.15
    10   1    -0.09  -0.03   0.01     0.11   0.03  -0.01    -0.40  -0.15   0.05
    11   6     0.00   0.01   0.01     0.01   0.01   0.01     0.06  -0.03   0.00
    12   1     0.05  -0.06   0.01     0.02  -0.02   0.01    -0.34   0.46  -0.08
    13   1    -0.01  -0.09  -0.11    -0.01  -0.10  -0.13     0.02   0.11   0.16
    14   1    -0.09  -0.03  -0.01    -0.11  -0.03  -0.01    -0.40  -0.15  -0.05
                    34                     35                     36
                     A                      A                      A
 Frequencies --  3178.9785              3181.4096              3187.2889
 Red. masses --     1.1025                 1.1034                 1.1027
 Frc consts  --     6.5645                 6.5797                 6.6001
 IR Inten    --     0.1036                31.3706                22.7248
  Atom  AN      X      Y      Z        X      Y      Z        X      Y      Z
     1   6     0.00   0.00   0.00     0.00  -0.01  -0.01     0.00   0.01   0.02
     2   9     0.00   0.00   0.00     0.00   0.00   0.00     0.00   0.00   0.00
     3   1     0.00   0.00  -0.01     0.03   0.10   0.16    -0.04  -0.11  -0.17
     4   6     0.00   0.00   0.00     0.00  -0.01   0.01     0.00  -0.01   0.02
     5   9     0.00   0.00   0.00     0.00   0.00   0.00     0.00   0.00   0.00
     6   1     0.00   0.00  -0.01     0.03   0.10  -0.16     0.04   0.11  -0.17
     7   6    -0.06   0.03   0.00    -0.03  -0.05   0.04    -0.02  -0.05   0.04
     8   1     0.33  -0.44  -0.08    -0.09   0.10   0.03    -0.11   0.13   0.03
     9   1    -0.02  -0.09   0.13     0.02   0.32  -0.44     0.02   0.33  -0.46
    10   1     0.44   0.16  -0.06     0.42   0.14  -0.05     0.37   0.12  -0.04
    11   6     0.06  -0.03   0.00    -0.03  -0.05  -0.04     0.02   0.05   0.04
    12   1    -0.32   0.44  -0.08    -0.09   0.10  -0.03     0.11  -0.13   0.03
    13   1     0.02   0.09   0.13     0.02   0.32   0.44    -0.02  -0.33  -0.46
    14   1    -0.43  -0.16  -0.06     0.42   0.14   0.05    -0.37  -0.12  -0.04

 -------------------
 - Thermochemistry -
 -------------------
 Temperature   298.150 Kelvin.  Pressure   1.00000 Atm.
 Atom     1 has atomic number  6 and mass  12.00000
 Atom     2 has atomic number  9 and mass  18.99840
 Atom     3 has atomic number  1 and mass   1.00783
 Atom     4 has atomic number  6 and mass  12.00000
 Atom     5 has atomic number  9 and mass  18.99840
 Atom     6 has atomic number  1 and mass   1.00783
 Atom     7 has atomic number  6 and mass  12.00000
 Atom     8 has atomic number  1 and mass   1.00783
 Atom     9 has atomic number  1 and mass   1.00783
 Atom    10 has atomic number  1 and mass   1.00783
 Atom    11 has atomic number  6 and mass  12.00000
 Atom    12 has atomic number  1 and mass   1.00783
 Atom    13 has atomic number  1 and mass   1.00783
 Atom    14 has atomic number  1 and mass   1.00783
 Molecular mass:    94.05941 amu.
 Principal axes and moments of inertia in atomic units:
                           1         2         3
     Eigenvalues --   393.01383 673.69636 763.86022
           X            0.98670   0.16256   0.00000
           Y           -0.16256   0.98670   0.00000
           Z            0.00000   0.00000   1.00000
 This molecule is an asymmetric top.
[...]
                6             7             8             9            10 
      6  0.000000D+00
      7 -0.157115D-01  0.000000D+00
      8 -0.123740D-01  0.959567D-01  0.000000D+00
      9 -0.896434D-01  0.992558D-01 -0.742768D-01  0.000000D+00
     10 -0.984110D-03  0.905747D-01 -0.794152D-01 -0.779815D-01  0.000000D+00
     11 -0.599637D-01  0.986188D-02 -0.239789D-02  0.377414D-01 -0.413186D-01
     12 -0.582105D-01 -0.239966D-02 -0.323337D-01  0.394147D-01 -0.340264D-01
     13 -0.540776D-01  0.377434D-01  0.394184D-01  0.813339D-01 -0.323286D-01
     14 -0.597356D-01 -0.413181D-01 -0.340250D-01 -0.323285D-01 -0.520668D-01
               11            12            13            14 
     11  0.000000D+00
     12  0.959562D-01  0.000000D+00
     13  0.992561D-01 -0.742766D-01  0.000000D+00
     14  0.905748D-01 -0.794155D-01 -0.779814D-01  0.000000D+00
 Diamagnetic spin-orbit (DSO) contribution to J (Hz):
                1             2             3             4             5 
      1  0.000000D+00
      2  0.934496D+00  0.000000D+00
      3  0.127825D+01 -0.767044D+00  0.000000D+00
      4  0.340964D+00  0.182427D+00  0.104126D+00  0.000000D+00
      5  0.182419D+00 -0.135520D+01  0.345617D+00  0.934495D+00  0.000000D+00
      6  0.104132D+00  0.345656D+00  0.182582D+00  0.127825D+01 -0.767037D+00
      7  0.337504D-01  0.968063D-02 -0.470530D+00  0.263597D+00 -0.323957D-01
      8  0.966614D-01  0.107829D+01 -0.181617D+01  0.651817D-01 -0.198191D+01
      9  0.742552D-01 -0.717188D+00 -0.168722D+01  0.170552D-01  0.519535D-01
     10 -0.385215D+00 -0.115376D+01 -0.186374D+01 -0.220061D-02 -0.255163D+00
     11  0.263597D+00 -0.323938D-01 -0.123291D+00  0.337502D-01  0.967437D-02
     12  0.651794D-01 -0.198191D+01 -0.386036D+00  0.966516D-01  0.107822D+01
     13  0.170570D-01  0.519358D-01 -0.279688D+01  0.742697D-01 -0.717151D+00
     14 -0.220647D-02 -0.255131D+00 -0.307703D-01 -0.385216D+00 -0.115379D+01
                6             7             8             9            10 
      6  0.000000D+00
      7 -0.123287D+00  0.000000D+00
      8 -0.386067D+00  0.752963D+00  0.000000D+00
      9 -0.279687D+01  0.778850D+00 -0.231743D+01  0.000000D+00
     10 -0.307042D-01  0.710731D+00 -0.247775D+01 -0.243302D+01  0.000000D+00
     11 -0.470529D+00  0.194627D-01 -0.188160D-01  0.296153D+00 -0.324223D+00
     12 -0.181616D+01 -0.188299D-01 -0.100881D+01  0.122974D+01 -0.106162D+01
     13 -0.168722D+01  0.296169D+00  0.122985D+01  0.253761D+01 -0.100865D+01
     14 -0.186375D+01 -0.324219D+00 -0.106158D+01 -0.100865D+01 -0.162448D+01
               11            12            13            14 
     11  0.000000D+00
     12  0.752959D+00  0.000000D+00
     13  0.778853D+00 -0.231743D+01  0.000000D+00
     14  0.710732D+00 -0.247776D+01 -0.243302D+01  0.000000D+00
 Total nuclear spin-spin coupling K (Hz): 
                1             2             3             4             5 
      1  0.000000D+00
      2 -0.202339D+02  0.000000D+00
      3  0.170289D+02  0.128833D+01  0.000000D+00
      4  0.260044D+02  0.383994D+01 -0.235712D+00  0.000000D+00
      5  0.383975D+01 -0.727466D+00  0.183522D+00 -0.202340D+02  0.000000D+00
      6 -0.235734D+00  0.183544D+00  0.105088D+00  0.170289D+02  0.128833D+01
      7  0.418812D+00 -0.243438D-01  0.515405D+00  0.223820D+02  0.286879D+01
      8  0.602865D-01  0.137443D+00 -0.114768D-01  0.286958D+00  0.179823D+01
      9  0.293375D+00  0.751272D-02 -0.166238D-01 -0.677365D+00  0.500827D+00
     10  0.930411D+00  0.140143D-01  0.196738D-01 -0.586717D+00  0.220639D+00
     11  0.223819D+02  0.286885D+01  0.119670D+00  0.418866D+00 -0.244539D-01
     12  0.286972D+00  0.179826D+01  0.262165D-01  0.602747D-01  0.137432D+00
     13 -0.677354D+00  0.500794D+00  0.316070D+00  0.293384D+00  0.757429D-02
     14 -0.586712D+00  0.220664D+00  0.140287D+00  0.930426D+00  0.139838D-01
                6             7             8             9            10 
      6  0.000000D+00
      7  0.119659D+00  0.000000D+00
      8  0.262123D-01  0.135686D+02  0.000000D+00
      9  0.316069D+00  0.139719D+02 -0.260761D+00  0.000000D+00
     10  0.140295D+00  0.141423D+02 -0.272258D+00 -0.216710D+00  0.000000D+00
     11  0.515408D+00  0.158533D+01 -0.838421D-02  0.553913D-01  0.667089D-01
     12 -0.114768D-01 -0.838844D-02  0.299792D-02  0.470121D-02 -0.372684D-02
     13 -0.166228D-01  0.553873D-01  0.470111D-02  0.104156D-01  0.804699D-03
     14  0.196755D-01  0.667001D-01 -0.372630D-02  0.804396D-03 -0.846369D-02
               11            12            13            14 
     11  0.000000D+00
     12  0.135685D+02  0.000000D+00
     13  0.139720D+02 -0.260761D+00  0.000000D+00
     14  0.141424D+02 -0.272259D+00 -0.216707D+00  0.000000D+00
 Total nuclear spin-spin coupling J (Hz): 
                1             2             3             4             5 
      1  0.000000D+00
      2 -0.149451D+03  0.000000D+00
      3  0.133624D+03  0.378357D+02  0.000000D+00
      4  0.513203D+02  0.283625D+02 -0.184961D+01  0.000000D+00
      5  0.283611D+02 -0.201099D+02  0.538968D+01 -0.149452D+03  0.000000D+00
      6 -0.184979D+01  0.539035D+01  0.327875D+01  0.133624D+03  0.378358D+02
      7  0.826535D+00 -0.179808D+00  0.404433D+01  0.441714D+02  0.211894D+02
      8  0.473062D+00  0.403644D+01 -0.358076D+00  0.225173D+01  0.528106D+02
      9  0.230208D+01  0.220634D+00 -0.518661D+00 -0.531522D+01  0.147083D+02
     10  0.730084D+01  0.411573D+00  0.613822D+00 -0.460391D+01  0.647974D+01
     11  0.441713D+02  0.211899D+02  0.939041D+00  0.826642D+00 -0.180621D+00
     12  0.225184D+01  0.528116D+02  0.817955D+00  0.472970D+00  0.403611D+01
     13 -0.531513D+01  0.147074D+02  0.986138D+01  0.230216D+01  0.222442D+00
     14 -0.460387D+01  0.648047D+01  0.437694D+01  0.730096D+01  0.410677D+00
                6             7             8             9            10 
      6  0.000000D+00
      7  0.938949D+00  0.000000D+00
      8  0.817823D+00  0.106471D+03  0.000000D+00
      9  0.986134D+01  0.109636D+03 -0.813573D+01  0.000000D+00
     10  0.437718D+01  0.110974D+03 -0.849443D+01 -0.676133D+01  0.000000D+00
     11  0.404436D+01  0.312868D+01 -0.657901D-01  0.434650D+00  0.523459D+00
     12 -0.358076D+00 -0.658233D-01  0.935348D-01  0.146677D+00 -0.116277D+00
     13 -0.518630D+00  0.434619D+00  0.146674D+00  0.324967D+00  0.251066D-01
     14  0.613873D+00  0.523389D+00 -0.116260D+00  0.250971D-01 -0.264067D+00
               11            12            13            14 
     11  0.000000D+00
     12  0.106471D+03  0.000000D+00
     13  0.109637D+03 -0.813572D+01  0.000000D+00
     14  0.110974D+03 -0.849448D+01 -0.676126D+01  0.000000D+00
 End of Minotr Frequency-dependent properties file   721 does not exist.
 End of Minotr Frequency-dependent properties file   722 does not exist.
 Leave Link 1002 at Sun Jan 19 17:20:09 2014, MaxMem= 2147483648 cpu:   46460.6
 (Enter /home/ik1r11/g09/l601.exe)
 Copying SCF densities to generalized density rwf, IOpCl= 0 IROHF=0.

 **********************************************************************

            Population analysis using the SCF density.

 **********************************************************************

 Orbital symmetries:
       Occupied  (A) (A) (A) (A) (A) (A) (A) (A) (A) (A) (A) (A)
                 (A) (A) (A) (A) (A) (A) (A) (A) (A) (A) (A) (A)
                 (A)
       Virtual   (A) (A) (A) (A) (A) (A) (A) (A) (A) (A) (A) (A)
                 (A) (A) (A) (A) (A) (A) (A) (A) (A) (A) (A) (A)
                 (A) (A) (A) (A) (A) (A) (A) (A) (A) (A) (A) (A)
                 (A) (A) (A) (A) (A) (A) (A) (A) (A) (A) (A) (A)
                 (A) (A) (A) (A) (A) (A) (A) (A) (A) (A) (A) (A)
                 (A) (A) (A) (A) (A) (A) (A) (A) (A) (A) (A) (A)
                 (A) (A) (A) (A) (A) (A) (A) (A) (A) (A) (A) (A)
                 (A) (A) (A) (A) (A) (A) (A) (A) (A) (A) (A) (A)
                 (A) (A) (A) (A) (A) (A) (A) (A) (A) (A) (A) (A)
                 (A) (A) (A) (A) (A) (A) (A) (A) (A) (A) (A) (A)
                 (A) (A) (A) (A) (A) (A) (A) (A) (A) (A) (A) (A)
                 (A) (A) (A) (A) (A) (A) (A) (A) (A) (A) (A) (A)
                 (A) (A) (A) (A) (A) (A) (A) (A) (A) (A) (A) (A)
                 (A) (A) (A) (A) (A) (A) (A) (A) (A) (A) (A) (A)
                 (A) (A) (A) (A) (A) (A) (A) (A) (A) (A) (A) (A)
                 (A) (A) (A) (A) (A) (A) (A) (A) (A) (A) (A) (A)
                 (A) (A) (A) (A) (A) (A) (A) (A) (A) (A) (A) (A)
                 (A) (A) (A) (A) (A) (A) (A) (A) (A) (A) (A) (A)
                 (A) (A) (A) (A) (A) (A) (A) (A) (A) (A) (A) (A)
                 (A) (A) (A) (A) (A) (A) (A) (A) (A) (A) (A) (A)
                 (A) (A) (A) (A) (A) (A) (A) (A) (A) (A) (A) (A)
                 (A) (A) (A) (A) (A) (A) (A) (A) (A) (A) (A) (A)
                 (A) (A) (A)
 The electronic state is 1-A.
 Alpha  occ. eigenvalues --  -25.27686 -25.27686 -10.64584 -10.64542 -10.55309
 Alpha  occ. eigenvalues --  -10.55309  -1.33715  -1.33086  -0.91505  -0.84536
 Alpha  occ. eigenvalues --   -0.76620  -0.68309  -0.60998  -0.60692  -0.59420
 Alpha  occ. eigenvalues --   -0.55048  -0.53423  -0.50159  -0.49133  -0.46912
 Alpha  occ. eigenvalues --   -0.45857  -0.45140  -0.43778  -0.39801  -0.39019
 Alpha virt. eigenvalues --    0.09358   0.11468   0.12132   0.12902   0.16118
 Alpha virt. eigenvalues --    0.16587   0.17029   0.17951   0.18128   0.22009
 Alpha virt. eigenvalues --    0.24697   0.24807   0.28364   0.29886   0.32274
 Alpha virt. eigenvalues --    0.33693   0.35453   0.38679   0.40553   0.42561
 Alpha virt. eigenvalues --    0.46315   0.46981   0.48858   0.50505   0.50732
 Alpha virt. eigenvalues --    0.50791   0.51985   0.53005   0.54352   0.54575
 Alpha virt. eigenvalues --    0.56102   0.56153   0.57971   0.59373   0.64977
 Alpha virt. eigenvalues --    0.66318   0.68910   0.71985   0.76854   0.77717
 Alpha virt. eigenvalues --    0.82369   0.84321   0.84664   0.89873   0.90865
 Alpha virt. eigenvalues --    0.90936   0.95282   0.96865   0.97309   0.97524
 Alpha virt. eigenvalues --    1.00674   1.04293   1.06588   1.06769   1.10039
 Alpha virt. eigenvalues --    1.10733   1.11503   1.14079   1.14437   1.17166
 Alpha virt. eigenvalues --    1.19513   1.19686   1.20188   1.21574   1.24367
 Alpha virt. eigenvalues --    1.26993   1.29532   1.31611   1.34074   1.35208
 Alpha virt. eigenvalues --    1.35633   1.38797   1.39811   1.40767   1.42004
 Alpha virt. eigenvalues --    1.44143   1.45685   1.49619   1.50771   1.51841
 Alpha virt. eigenvalues --    1.54200   1.60439   1.61054   1.65603   1.66493
 Alpha virt. eigenvalues --    1.68189   1.77717   1.90754   2.01396   2.02894
 Alpha virt. eigenvalues --    2.11395   2.12481   2.17877   2.19969   2.20708
 Alpha virt. eigenvalues --    2.21451   2.30207   2.35064   2.39478   2.39710
 Alpha virt. eigenvalues --    2.42380   2.44876   2.48207   2.52169   2.53316
 Alpha virt. eigenvalues --    2.53915   2.55790   2.56757   2.59611   2.65703
 Alpha virt. eigenvalues --    2.65798   2.66606   2.67526   2.73479   2.77069
 Alpha virt. eigenvalues --    2.77327   2.80121   2.85077   2.87485   2.88995
 Alpha virt. eigenvalues --    2.90187   2.93201   2.95323   2.98538   2.99062
 Alpha virt. eigenvalues --    3.01023   3.03736   3.04185   3.05949   3.09652
 Alpha virt. eigenvalues --    3.11512   3.12490   3.13860   3.14888   3.16537
 Alpha virt. eigenvalues --    3.16666   3.22458   3.23242   3.24760   3.25699
 Alpha virt. eigenvalues --    3.29691   3.29767   3.32831   3.32890   3.36460
 Alpha virt. eigenvalues --    3.38405   3.41438   3.42184   3.43025   3.45619
 Alpha virt. eigenvalues --    3.49540   3.51093   3.54020   3.54241   3.55671
 Alpha virt. eigenvalues --    3.59128   3.60415   3.63323   3.64443   3.68195
 Alpha virt. eigenvalues --    3.72248   3.72478   3.72779   3.80256   3.82512
 Alpha virt. eigenvalues --    3.82770   3.83680   3.85474   3.88091   3.88901
 Alpha virt. eigenvalues --    3.90323   3.90564   3.93047   3.95949   3.97077
 Alpha virt. eigenvalues --    3.99600   4.03468   4.04572   4.06073   4.06589
 Alpha virt. eigenvalues --    4.09169   4.10403   4.13306   4.13964   4.15831
 Alpha virt. eigenvalues --    4.20260   4.25726   4.26810   4.27989   4.29545
 Alpha virt. eigenvalues --    4.33733   4.33806   4.36504   4.40454   4.45969
 Alpha virt. eigenvalues --    4.47091   4.52445   4.53204   4.65197   4.69856
 Alpha virt. eigenvalues --    4.82541   4.84516   4.85054   4.87444   4.87534
 Alpha virt. eigenvalues --    4.90344   4.92228   4.95514   4.98864   5.02930
 Alpha virt. eigenvalues --    5.06305   5.06394   5.10690   5.17578   5.17888
 Alpha virt. eigenvalues --    5.19064   5.21952   5.25988   5.27110   5.31522
 Alpha virt. eigenvalues --    5.33301   5.34753   5.39995   5.41799   5.43290
 Alpha virt. eigenvalues --    5.44718   5.50479   5.53931   5.54142   5.58933
 Alpha virt. eigenvalues --    5.76445   5.83048   5.85515   5.86881   5.95709
 Alpha virt. eigenvalues --    6.08656   6.09959   6.92104   6.92585   6.92864
 Alpha virt. eigenvalues --    6.93378   7.01112   7.02891   7.05805   7.06254
 Alpha virt. eigenvalues --    7.22227   7.24187   7.25180   7.30940   7.34636
 Alpha virt. eigenvalues --    7.34917   8.38909   8.41107   8.41150   8.46316
 Alpha virt. eigenvalues --    8.82762   8.87673   8.87938   8.89375   8.98469
 Alpha virt. eigenvalues --    8.98843  11.28333  11.99162  12.13195  12.24499
 Alpha virt. eigenvalues --   13.69197  13.89418
          Condensed to atoms (all electrons):
              1          2          3          4          5          6
     1  C    4.748172   0.270648   0.437156   0.325306  -0.039551  -0.048460
     2  F    0.270648   9.100529  -0.027708  -0.039551   0.000930   0.002189
     3  H    0.437156  -0.027708   0.580728  -0.048459   0.002189  -0.012629
     4  C    0.325306  -0.039551  -0.048459   4.748165   0.270651   0.437156
     5  F   -0.039551   0.000930   0.002189   0.270651   9.100527  -0.027709
     6  H   -0.048460   0.002189  -0.012629   0.437156  -0.027709   0.580731
     7  C   -0.045656   0.000799   0.010164   0.307988  -0.039341  -0.053247
     8  H    0.003251   0.008195   0.000511  -0.039386   0.003514   0.001013
     9  H   -0.011744   0.000093  -0.000439  -0.025649   0.000370   0.006298
    10  H    0.006984  -0.000176  -0.000187  -0.029204   0.000623  -0.008700
    11  C    0.307988  -0.039341  -0.053247  -0.045656   0.000800   0.010164
    12  H   -0.039386   0.003514   0.001013   0.003250   0.008195   0.000511
    13  H   -0.025649   0.000370   0.006298  -0.011744   0.000093  -0.000439
    14  H   -0.029204   0.000623  -0.008700   0.006984  -0.000176  -0.000187
              7          8          9         10         11         12
     1  C   -0.045656   0.003251  -0.011744   0.006984   0.307988  -0.039386
     2  F    0.000799   0.008195   0.000093  -0.000176  -0.039341   0.003514
     3  H    0.010164   0.000511  -0.000439  -0.000187  -0.053247   0.001013
     4  C    0.307988  -0.039386  -0.025649  -0.029204  -0.045656   0.003250
     5  F   -0.039341   0.003514   0.000370   0.000623   0.000800   0.008195
     6  H   -0.053247   0.001013   0.006298  -0.008700   0.010164   0.000511
     7  C    4.974388   0.383047   0.398612   0.407114  -0.016041  -0.002032
     8  H    0.383047   0.581483  -0.032473  -0.027887  -0.002032   0.000240
     9  H    0.398612  -0.032473   0.580848  -0.033240   0.003750   0.001184
    10  H    0.407114  -0.027887  -0.033240   0.564986  -0.000326  -0.000181
    11  C   -0.016041  -0.002032   0.003750  -0.000326   4.974384   0.383047
    12  H   -0.002032   0.000240   0.001184  -0.000181   0.383047   0.581484
    13  H    0.003751   0.001183  -0.005212   0.000204   0.398613  -0.032473
    14  H   -0.000326  -0.000181   0.000204   0.000031   0.407113  -0.027887
             13         14
     1  C   -0.025649  -0.029204
     2  F    0.000370   0.000623
     3  H    0.006298  -0.008700
     4  C   -0.011744   0.006984
     5  F    0.000093  -0.000176
     6  H   -0.000439  -0.000187
     7  C    0.003751  -0.000326
     8  H    0.001183  -0.000181
     9  H   -0.005212   0.000204
    10  H    0.000204   0.000031
    11  C    0.398613   0.407113
    12  H   -0.032473  -0.027887
    13  H    0.580848  -0.033240
    14  H   -0.033240   0.564985
 Mulliken atomic charges:
              1
     1  C    0.140146
     2  F   -0.281116
     3  H    0.113310
     4  C    0.140149
     5  F   -0.281116
     6  H    0.113309
     7  C   -0.329219
     8  H    0.119522
     9  H    0.117397
    10  H    0.119958
    11  C   -0.329216
    12  H    0.119521
    13  H    0.117396
    14  H    0.119959
 Sum of Mulliken atomic charges =   0.00000
 Mulliken charges with hydrogens summed into heavy atoms:
              1
     1  C    0.253456
     2  F   -0.281116
     4  C    0.253458
     5  F   -0.281116
     7  C    0.027658
    11  C    0.027660
 Sum of Mulliken charges with hydrogens summed into heavy atoms =   0.00000
 Electronic spatial extent (au):  <R**2>=            596.1720
 Charge=              0.0000 electrons
 Dipole moment (field-independent basis, Debye):
    X=              0.0000    Y=              0.0000    Z=              0.7270  Tot=              0.7270
 Quadrupole moment (field-independent basis, Debye-Ang):
   XX=            -39.6988   YY=            -37.0762   ZZ=            -34.5381
   XY=              5.8977   XZ=              0.0000   YZ=              0.0000
 Traceless Quadrupole moment (field-independent basis, Debye-Ang):
   XX=             -2.5944   YY=              0.0282   ZZ=              2.5663
   XY=              5.8977   XZ=              0.0000   YZ=              0.0000
 Octapole moment (field-independent basis, Debye-Ang**2):
  XXX=             -0.0002  YYY=             -0.0001  ZZZ=             -8.5132  XYY=              0.0000
  XXY=              0.0001  XXZ=              0.3179  XZZ=              0.0001  YZZ=             -0.0001
  YYZ=             -0.8420  XYZ=             -3.0676
 Hexadecapole moment (field-independent basis, Debye-Ang**3):
 XXXX=           -348.6386 YYYY=           -198.6894 ZZZZ=           -150.9100 XXXY=             -1.2009
 XXXZ=              0.0000 YYYX=            -16.4287 YYYZ=             -0.0001 ZZZX=              0.0002
 ZZZY=              0.0000 XXYY=            -93.8883 XXZZ=            -84.9722 YYZZ=            -59.5034
 XXYZ=             -0.0001 YYXZ=              0.0000 ZZXY=             -4.9399
 N-N= 2.646914676878D+02 E-N=-1.370136901340D+03  KE= 3.550822408312D+02
 Calculating spin-rotation constants.
 Leave Link  601 at Sun Jan 19 17:20:17 2014, MaxMem= 2147483648 cpu:      83.0
 (Enter /home/ik1r11/g09/l9999.exe)

 Test job not archived.
 1\1\GINC-RED0335\SP\RM052X\Gen\C4H8F2\IK1R11\19-Jan-2014\0\\#P Geom=Al
 lCheck Guess=TCheck SCRF=Check GenChk RM052X/ChkBas NMR=ReadFC IOp(3/6
 =22)\\J-couplings.\\0,1\C,0,0.729363,-1.22673,0.206838\F,0,0.733244,-1
 .344924,1.608974\H,0,1.197301,-2.126853,-0.183491\C,0,-0.730693,-1.225
 858,-0.207336\F,0,-0.734719,-1.343488,-1.609519\H,0,-1.199598,-2.12563
 2,0.182638\C,0,-1.504423,0.00257,0.179072\H,0,-1.433741,0.154489,1.254
 032\H,0,-1.113037,0.879116,-0.330164\H,0,-2.550842,-0.120636,-0.086421
 \C,0,1.504421,0.001018,-0.179064\H,0,1.433938,0.153433,-1.253968\H,0,1
 .113954,0.877783,0.3305\H,0,2.550698,-0.123408,0.086416\\Version=EM64L
 -G09RevA.02\State=1-A\HF=-357.0409027\RMSD=3.519e-09\Dipole=0.0001677,
 0.2860338,0.0000606\Quadrupole=2.6783512,1.9079445,-4.5862957,0.000106
 3,-2.6425229,0.0027263\PG=C01 [X(C4H8F2)]\\@


 THERE ARE TWO THINGS THAT EVERYBODY THINKS THEY CAN DO BETTER THAN
 ANYONE ELSE - PUNCH THE FIRE, AND EDIT A DAILY PAPER.
 -- UNCLE ESEK, "CENTURY MAGAZINE", 1885
 Job cpu time:  0 days 13 hours 19 minutes 13.1 seconds.
 File lengths (MBytes):  RWF=    371 Int=      0 D2E=      0 Chk=     11 Scr=      2
 Normal termination of Gaussian 09 at Sun Jan 19 17:20:18 2014.
