 Entering Link 1 = X:\G09W\l1.exe PID=      7900.
  
 Copyright (c) 1988,1990,1992,1993,1995,1998,2003,2009,2011,
            Gaussian, Inc.  All Rights Reserved.
  
 This is part of the Gaussian(R) 09 program.  It is based on
 the Gaussian(R) 03 system (copyright 2003, Gaussian, Inc.),
 the Gaussian(R) 98 system (copyright 1998, Gaussian, Inc.),
 the Gaussian(R) 94 system (copyright 1995, Gaussian, Inc.),
 the Gaussian 92(TM) system (copyright 1992, Gaussian, Inc.),
 the Gaussian 90(TM) system (copyright 1990, Gaussian, Inc.),
 the Gaussian 88(TM) system (copyright 1988, Gaussian, Inc.),
 the Gaussian 86(TM) system (copyright 1986, Carnegie Mellon
 University), and the Gaussian 82(TM) system (copyright 1983,
 Carnegie Mellon University). Gaussian is a federally registered
 trademark of Gaussian, Inc.
  
 This software contains proprietary and confidential information,
 including trade secrets, belonging to Gaussian, Inc.
  
 This software is provided under written license and may be
 used, copied, transmitted, or stored only in accord with that
 written license.
  
 The following legend is applicable only to US Government
 contracts under FAR:
  
                    RESTRICTED RIGHTS LEGEND
  
 Use, reproduction and disclosure by the US Government is
 subject to restrictions as set forth in subparagraphs (a)
 and (c) of the Commercial Computer Software - Restricted
 Rights clause in FAR 52.227-19.
  
 Gaussian, Inc.
 340 Quinnipiac St., Bldg. 40, Wallingford CT 06492
  
  
 ---------------------------------------------------------------
 Warning -- This program may not be used in any manner that
 competes with the business of Gaussian, Inc. or will provide
 assistance to any competitor of Gaussian, Inc.  The licensee
 of this program is prohibited from giving any competitor of
 Gaussian, Inc. access to this program.  By using this program,
 the user acknowledges that Gaussian, Inc. is engaged in the
 business of creating and licensing software in the field of
 computational chemistry and represents and warrants to the
 licensee that it is not a competitor of Gaussian, Inc. and that
 it will not use this program in any manner prohibited above.
 ---------------------------------------------------------------
  

 Cite this work as:
 Gaussian 09, Revision C.01,
 M. J. Frisch, G. W. Trucks, H. B. Schlegel, G. E. Scuseria, 
 M. A. Robb, J. R. Cheeseman, G. Scalmani, V. Barone, B. Mennucci, 
 G. A. Petersson, H. Nakatsuji, M. Caricato, X. Li, H. P. Hratchian, 
 A. F. Izmaylov, J. Bloino, G. Zheng, J. L. Sonnenberg, M. Hada, 
 M. Ehara, K. Toyota, R. Fukuda, J. Hasegawa, M. Ishida, T. Nakajima, 
 Y. Honda, O. Kitao, H. Nakai, T. Vreven, J. A. Montgomery, Jr., 
 J. E. Peralta, F. Ogliaro, M. Bearpark, J. J. Heyd, E. Brothers, 
 K. N. Kudin, V. N. Staroverov, T. Keith, R. Kobayashi, J. Normand, 
 K. Raghavachari, A. Rendell, J. C. Burant, S. S. Iyengar, J. Tomasi, 
 M. Cossi, N. Rega, J. M. Millam, M. Klene, J. E. Knox, J. B. Cross, 
 V. Bakken, C. Adamo, J. Jaramillo, R. Gomperts, R. E. Stratmann, 
 O. Yazyev, A. J. Austin, R. Cammi, C. Pomelli, J. W. Ochterski, 
 R. L. Martin, K. Morokuma, V. G. Zakrzewski, G. A. Voth, 
 P. Salvador, J. J. Dannenberg, S. Dapprich, A. D. Daniels, 
 O. Farkas, J. B. Foresman, J. V. Ortiz, J. Cioslowski, 
 and D. J. Fox, Gaussian, Inc., Wallingford CT, 2010.
 
 ******************************************
 Gaussian 09:  EM64W-G09RevC.01 23-Sep-2011
                25-Jul-2014 
 ******************************************
 %Mem=16GB
 %NProcShared=4
 Will use up to    4 processors via shared memory.
 -----------------------------------------------------------
 # opt=tight m06/cc-pVDZ scf=tight integral=(grid=ultrafine)
 -----------------------------------------------------------
 1/7=10,14=-1,18=20,19=15,26=3,38=1/1,3;
 2/9=110,12=2,17=6,18=5,40=1/2;
 3/5=16,11=2,16=1,25=1,30=1,71=1,74=-54,75=-5/1,2,3;
 4//1;
 5/5=2,32=2,38=5/2;
 6/7=2,8=2,9=2,10=2,28=1/1;
 7//1,2,3,16;
 1/7=10,14=-1,18=20,19=15/3(2);
 2/9=110/2;
 99//99;
 2/9=110/2;
 3/5=16,11=2,16=1,25=1,30=1,71=1,74=-54,75=-5/1,2,3;
 4/5=5,16=3/1;
 5/5=2,32=2,38=5/2;
 7//1,2,3,16;
 1/7=10,14=-1,18=20,19=15/3(-5);
 2/9=110/2;
 6/7=2,8=2,9=2,10=2,19=2,28=1/1;
 99/9=1/99;
 ---------------------------------
 Cis-isomer of dimethyloxazolidine
 ---------------------------------
 Charge =  0 Multiplicity = 1
 Symbolic Z-Matrix:
 C                     0.90268   0.73216  -0.20738 
 C                     2.68547   1.76632   0.2483 
 C                     1.70405   2.86333  -0.05091 
 H                     0.22477   0.15397  -0.79987 
 H                     2.57863   1.39633   1.24659 
 H                     3.70147   2.07491   0.1164 
 H                     1.92418   3.20955  -1.03912 
 O                     2.24394   0.77977  -0.72021 
 N                     0.43614   2.14204  -0.064 
 H                    -0.12046   2.17749   0.76603 
 C                     1.71689   4.07283   0.90227 
 H                     2.68005   4.53811   0.87514 
 H                     0.97191   4.77684   0.59522 
 H                     1.50763   3.7439    1.89872 
 C                     1.01238   0.10179   1.19341 
 H                     0.04625   0.08345   1.65293 
 H                     1.38511  -0.89743   1.10668 
 H                     1.682     0.68138   1.7939 
 

 GradGradGradGradGradGradGradGradGradGradGradGradGradGradGradGradGradGrad
 Berny optimization.
 Initialization pass.
                           ----------------------------
                           !    Initial Parameters    !
                           ! (Angstroms and Degrees)  !
 --------------------------                            --------------------------
 ! Name  Definition              Value          Derivative Info.                !
 --------------------------------------------------------------------------------
 ! R1    R(1,4)                  1.07           estimate D2E/DX2                !
 ! R2    R(1,8)                  1.4368         estimate D2E/DX2                !
 ! R3    R(1,9)                  1.492          estimate D2E/DX2                !
 ! R4    R(1,15)                 1.54           estimate D2E/DX2                !
 ! R5    R(2,3)                  1.502          estimate D2E/DX2                !
 ! R6    R(2,5)                  1.07           estimate D2E/DX2                !
 ! R7    R(2,6)                  1.07           estimate D2E/DX2                !
 ! R8    R(2,8)                  1.4513         estimate D2E/DX2                !
 ! R9    R(3,7)                  1.07           estimate D2E/DX2                !
 ! R10   R(3,9)                  1.4588         estimate D2E/DX2                !
 ! R11   R(3,11)                 1.54           estimate D2E/DX2                !
 ! R12   R(9,10)                 1.0            estimate D2E/DX2                !
 ! R13   R(11,12)                1.07           estimate D2E/DX2                !
 ! R14   R(11,13)                1.07           estimate D2E/DX2                !
 ! R15   R(11,14)                1.07           estimate D2E/DX2                !
 ! R16   R(15,16)                1.07           estimate D2E/DX2                !
 ! R17   R(15,17)                1.07           estimate D2E/DX2                !
 ! R18   R(15,18)                1.07           estimate D2E/DX2                !
 ! A1    A(4,1,8)              114.3122         estimate D2E/DX2                !
 ! A2    A(4,1,9)              111.4528         estimate D2E/DX2                !
 ! A3    A(4,1,15)             109.1244         estimate D2E/DX2                !
 ! A4    A(8,1,9)              107.1516         estimate D2E/DX2                !
 ! A5    A(8,1,15)             105.7677         estimate D2E/DX2                !
 ! A6    A(9,1,15)             108.7636         estimate D2E/DX2                !
 ! A7    A(3,2,5)              111.9103         estimate D2E/DX2                !
 ! A8    A(3,2,6)              112.6578         estimate D2E/DX2                !
 ! A9    A(3,2,8)               99.483          estimate D2E/DX2                !
 ! A10   A(5,2,6)              108.0318         estimate D2E/DX2                !
 ! A11   A(5,2,8)              110.9276         estimate D2E/DX2                !
 ! A12   A(6,2,8)              113.7451         estimate D2E/DX2                !
 ! A13   A(2,3,7)              106.6109         estimate D2E/DX2                !
 ! A14   A(2,3,9)              102.0385         estimate D2E/DX2                !
 ! A15   A(2,3,11)             116.4147         estimate D2E/DX2                !
 ! A16   A(7,3,9)              109.2998         estimate D2E/DX2                !
 ! A17   A(7,3,11)             108.4089         estimate D2E/DX2                !
 ! A18   A(9,3,11)             113.649          estimate D2E/DX2                !
 ! A19   A(1,8,2)               93.9185         estimate D2E/DX2                !
 ! A20   A(1,9,3)              101.3217         estimate D2E/DX2                !
 ! A21   A(1,9,10)             106.697          estimate D2E/DX2                !
 ! A22   A(3,9,10)             117.3095         estimate D2E/DX2                !
 ! A23   A(3,11,12)            109.4712         estimate D2E/DX2                !
 ! A24   A(3,11,13)            109.4712         estimate D2E/DX2                !
 ! A25   A(3,11,14)            109.4712         estimate D2E/DX2                !
 ! A26   A(12,11,13)           109.4712         estimate D2E/DX2                !
 ! A27   A(12,11,14)           109.4712         estimate D2E/DX2                !
 ! A28   A(13,11,14)           109.4712         estimate D2E/DX2                !
 ! A29   A(1,15,16)            109.4712         estimate D2E/DX2                !
 ! A30   A(1,15,17)            109.4712         estimate D2E/DX2                !
 ! A31   A(1,15,18)            109.4712         estimate D2E/DX2                !
 ! A32   A(16,15,17)           109.4712         estimate D2E/DX2                !
 ! A33   A(16,15,18)           109.4712         estimate D2E/DX2                !
 ! A34   A(17,15,18)           109.4712         estimate D2E/DX2                !
 ! D1    D(4,1,8,2)            172.5285         estimate D2E/DX2                !
 ! D2    D(9,1,8,2)             48.5118         estimate D2E/DX2                !
 ! D3    D(15,1,8,2)           -67.3972         estimate D2E/DX2                !
 ! D4    D(4,1,9,3)           -145.3791         estimate D2E/DX2                !
 ! D5    D(4,1,9,10)            91.353          estimate D2E/DX2                !
 ! D6    D(8,1,9,3)            -19.631          estimate D2E/DX2                !
 ! D7    D(8,1,9,10)          -142.899          estimate D2E/DX2                !
 ! D8    D(15,1,9,3)            94.2722         estimate D2E/DX2                !
 ! D9    D(15,1,9,10)          -28.9957         estimate D2E/DX2                !
 ! D10   D(4,1,15,16)          -59.4541         estimate D2E/DX2                !
 ! D11   D(4,1,15,17)           60.5459         estimate D2E/DX2                !
 ! D12   D(4,1,15,18)         -179.4541         estimate D2E/DX2                !
 ! D13   D(8,1,15,16)          177.1303         estimate D2E/DX2                !
 ! D14   D(8,1,15,17)          -62.8697         estimate D2E/DX2                !
 ! D15   D(8,1,15,18)           57.1303         estimate D2E/DX2                !
 ! D16   D(9,1,15,16)           62.3238         estimate D2E/DX2                !
 ! D17   D(9,1,15,17)         -177.6762         estimate D2E/DX2                !
 ! D18   D(9,1,15,18)          -57.6762         estimate D2E/DX2                !
 ! D19   D(5,2,3,7)            176.5384         estimate D2E/DX2                !
 ! D20   D(5,2,3,9)            -68.8616         estimate D2E/DX2                !
 ! D21   D(5,2,3,11)            55.4641         estimate D2E/DX2                !
 ! D22   D(6,2,3,7)             54.5704         estimate D2E/DX2                !
 ! D23   D(6,2,3,9)            169.1704         estimate D2E/DX2                !
 ! D24   D(6,2,3,11)           -66.5039         estimate D2E/DX2                !
 ! D25   D(8,2,3,7)            -66.2347         estimate D2E/DX2                !
 ! D26   D(8,2,3,9)             48.3653         estimate D2E/DX2                !
 ! D27   D(8,2,3,11)           172.691          estimate D2E/DX2                !
 ! D28   D(3,2,8,1)            -57.6934         estimate D2E/DX2                !
 ! D29   D(5,2,8,1)             60.271          estimate D2E/DX2                !
 ! D30   D(6,2,8,1)           -177.7043         estimate D2E/DX2                !
 ! D31   D(2,3,9,1)            -17.162          estimate D2E/DX2                !
 ! D32   D(2,3,9,10)            98.5056         estimate D2E/DX2                !
 ! D33   D(7,3,9,1)             95.4436         estimate D2E/DX2                !
 ! D34   D(7,3,9,10)          -148.8888         estimate D2E/DX2                !
 ! D35   D(11,3,9,1)          -143.3161         estimate D2E/DX2                !
 ! D36   D(11,3,9,10)          -27.6485         estimate D2E/DX2                !
 ! D37   D(2,3,11,12)           60.6556         estimate D2E/DX2                !
 ! D38   D(2,3,11,13)         -179.3444         estimate D2E/DX2                !
 ! D39   D(2,3,11,14)          -59.3444         estimate D2E/DX2                !
 ! D40   D(7,3,11,12)          -59.4593         estimate D2E/DX2                !
 ! D41   D(7,3,11,13)           60.5407         estimate D2E/DX2                !
 ! D42   D(7,3,11,14)         -179.4593         estimate D2E/DX2                !
 ! D43   D(9,3,11,12)          178.8037         estimate D2E/DX2                !
 ! D44   D(9,3,11,13)          -61.1963         estimate D2E/DX2                !
 ! D45   D(9,3,11,14)           58.8037         estimate D2E/DX2                !
 --------------------------------------------------------------------------------
 Trust Radius=3.00D-01 FncErr=1.00D-07 GrdErr=1.00D-06
 Number of steps in this run=    107 maximum allowed number of steps=    108.
 GradGradGradGradGradGradGradGradGradGradGradGradGradGradGradGradGradGrad

                          Input orientation:                          
 ---------------------------------------------------------------------
 Center     Atomic      Atomic             Coordinates (Angstroms)
 Number     Number       Type             X           Y           Z
 ---------------------------------------------------------------------
      1          6           0        0.902676    0.732156   -0.207378
      2          6           0        2.685465    1.766319    0.248300
      3          6           0        1.704050    2.863330   -0.050906
      4          1           0        0.224772    0.153966   -0.799867
      5          1           0        2.578626    1.396326    1.246593
      6          1           0        3.701473    2.074914    0.116405
      7          1           0        1.924179    3.209549   -1.039124
      8          8           0        2.243940    0.779772   -0.720211
      9          7           0        0.436136    2.142041   -0.063996
     10          1           0       -0.120461    2.177487    0.766031
     11          6           0        1.716889    4.072829    0.902272
     12          1           0        2.680047    4.538114    0.875141
     13          1           0        0.971912    4.776841    0.595225
     14          1           0        1.507627    3.743898    1.898723
     15          6           0        1.012379    0.101795    1.193412
     16          1           0        0.046251    0.083452    1.652932
     17          1           0        1.385110   -0.897430    1.106678
     18          1           0        1.681999    0.681383    1.793900
 ---------------------------------------------------------------------
                    Distance matrix (angstroms):
                    1          2          3          4          5
     1  C    0.000000
     2  C    2.110799   0.000000
     3  C    2.282233   1.502042   0.000000
     4  H    1.070000   3.123035   3.176454   0.000000
     5  H    2.316023   1.070000   2.144875   3.357393   0.000000
     6  H    3.121074   1.070000   2.153902   4.076401   1.731645
     7  H    2.805842   2.078444   1.070000   3.504542   2.990081
     8  O    1.436752   1.451287   2.254033   2.115424   2.088175
     9  N    1.491976   2.301777   1.458779   2.130404   2.619924
    10  H    2.020721   2.882763   2.113435   2.581833   2.850653
    11  C    3.613082   2.585693   1.540000   4.525613   2.832811
    12  H    4.337766   2.841796   2.148263   5.296676   3.165296
    13  H    4.124129   3.481359   2.148263   4.886253   3.799170
    14  H    3.724543   2.832316   2.148263   4.670730   2.661467
    15  C    1.540000   2.542262   3.106898   2.143876   2.032675
    16  H    2.148263   3.430814   3.657743   2.460298   2.881262
    17  H    2.148263   3.085984   3.947789   2.467130   2.589473
    18  H    2.148263   2.138436   2.857391   3.021474   1.270679
                    6          7          8          9         10
     6  H    0.000000
     7  H    2.404458   0.000000
     8  O    2.121726   2.471390   0.000000
     9  N    3.271006   2.074783   2.356810   0.000000
    10  H    3.878107   2.916211   3.122966   1.000000   0.000000
    11  C    2.923667   2.134769   3.708700   2.510367   2.643243
    12  H    2.772426   2.449660   4.106151   3.414423   3.664329
    13  H    3.870424   2.456484   4.396019   2.768357   2.824728
    14  H    3.282549   3.014961   4.023309   2.750692   2.527312
    15  C    3.504907   3.933666   2.374521   2.464900   2.403015
    16  H    4.437059   4.532799   3.308551   2.708808   2.280213
    17  H    3.896281   4.665012   2.624523   3.392552   3.440625
    18  H    2.972237   3.804773   2.578025   2.671605   2.558067
                   11         12         13         14         15
    11  C    0.000000
    12  H    1.070000   0.000000
    13  H    1.070000   1.747303   0.000000
    14  H    1.070000   1.747303   1.747303   0.000000
    15  C    4.043539   4.750089   4.713334   3.742680   0.000000
    16  H    4.389721   5.233149   4.899335   3.949038   1.070000
    17  H    4.985512   5.592460   5.712238   4.710018   1.070000
    18  H    3.506868   4.088348   4.325947   3.069266   1.070000
                   16         17         18
    16  H    0.000000
    17  H    1.747303   0.000000
    18  H    1.747303   1.747303   0.000000
 Stoichiometry    C5H11NO
 Framework group  C1[X(C5H11NO)]
 Deg. of freedom    48
 Full point group                 C1      NOp   1
 Largest Abelian subgroup         C1      NOp   1
 Largest concise Abelian subgroup C1      NOp   1
                         Standard orientation:                         
 ---------------------------------------------------------------------
 Center     Atomic      Atomic             Coordinates (Angstroms)
 Number     Number       Type             X           Y           Z
 ---------------------------------------------------------------------
      1          6           0        1.171821   -0.235162   -0.555219
      2          6           0       -0.140600    1.023840    0.516200
      3          6           0       -1.058684    0.195796   -0.336792
      4          1           0        1.884259   -0.501277   -1.307890
      5          1           0        0.166364    0.500101    1.397320
      6          1           0       -0.582645    1.950154    0.818589
      7          1           0       -1.359356    0.816786   -1.154636
      8          8           0        0.968213    1.179362   -0.407152
      9          7           0       -0.162235   -0.845703   -0.826378
     10          1           0       -0.177712   -1.725219   -0.350760
     11          6           0       -2.324208   -0.350902    0.349626
     12          1           0       -2.920919    0.465329    0.699772
     13          1           0       -2.888221   -0.930089   -0.351325
     14          1           0       -2.042777   -0.967795    1.177358
     15          6           0        1.674626   -0.731091    0.813299
     16          1           0        1.798899   -1.793446    0.784018
     17          1           0        2.612910   -0.268281    1.037639
     18          1           0        0.961418   -0.476120    1.569093
 ---------------------------------------------------------------------
 Rotational constants (GHZ):      4.6382219      2.2570255      2.0260265
 Standard basis: CC-pVDZ (5D, 7F)
 There are   153 symmetry adapted basis functions of A   symmetry.
 Integral buffers will be    131072 words long.
 Raffenetti 2 integral format.
 Two-electron integral symmetry is turned on.
   153 basis functions,   308 primitive gaussians,   160 cartesian basis functions
    28 alpha electrons       28 beta electrons
       nuclear repulsion energy       344.6576637236 Hartrees.
 NAtoms=   18 NActive=   18 NUniq=   18 SFac= 1.00D+00 NAtFMM=   60 NAOKFM=F Big=F
 One-electron integrals computed using PRISM.
 NBasis=   153 RedAO= T  NBF=   153
 NBsUse=   153 1.00D-06 NBFU=   153
 Harris functional with IExCor= 1009 diagonalized for initial guess.
 ExpMin= 1.22D-01 ExpMax= 1.17D+04 ExpMxC= 4.01D+02 IAcc=3 IRadAn=         5 AccDes= 0.00D+00
 HarFok:  IExCor= 1009 AccDes= 0.00D+00 IRadAn=         5 IDoV= 1
 ScaDFX=  1.000000  1.000000  1.000000  1.000000
 FoFCou: FMM=F IPFlag=           0 FMFlag=      100000 FMFlg1=           0
         NFxFlg=           0 DoJE=T BraDBF=F KetDBF=T FulRan=T
         Omega=  0.000000  0.000000  1.000000  0.000000  0.000000 ICntrl=     500 IOpCl=  0
         NMat0=    1 NMatS0=    1 NMatT0=    0 NMatD0=    1 NMtDS0=    0 NMtDT0=    0
         I1Cent=           4 NGrid=           0.
 Petite list used in FoFCou.
 Initial guess orbital symmetries:
       Occupied  (A) (A) (A) (A) (A) (A) (A) (A) (A) (A) (A) (A)
                 (A) (A) (A) (A) (A) (A) (A) (A) (A) (A) (A) (A)
                 (A) (A) (A) (A)
       Virtual   (A) (A) (A) (A) (A) (A) (A) (A) (A) (A) (A) (A)
                 (A) (A) (A) (A) (A) (A) (A) (A) (A) (A) (A) (A)
                 (A) (A) (A) (A) (A) (A) (A) (A) (A) (A) (A) (A)
                 (A) (A) (A) (A) (A) (A) (A) (A) (A) (A) (A) (A)
                 (A) (A) (A) (A) (A) (A) (A) (A) (A) (A) (A) (A)
                 (A) (A) (A) (A) (A) (A) (A) (A) (A) (A) (A) (A)
                 (A) (A) (A) (A) (A) (A) (A) (A) (A) (A) (A) (A)
                 (A) (A) (A) (A) (A) (A) (A) (A) (A) (A) (A) (A)
                 (A) (A) (A) (A) (A) (A) (A) (A) (A) (A) (A) (A)
                 (A) (A) (A) (A) (A) (A) (A) (A) (A) (A) (A) (A)
                 (A) (A) (A) (A) (A)
 The electronic state of the initial guess is 1-A.
 Requested convergence on RMS density matrix=1.00D-08 within 128 cycles.
 Requested convergence on MAX density matrix=1.00D-06.
 Requested convergence on             energy=1.00D-06.
 No special actions if energy rises.
 Keep R1 ints in memory in canonical form, NReq=85546321.
 Integral accuracy reduced to 1.0D-05 until final iterations.
 Initial convergence to 1.0D-05 achieved.  Increase integral accuracy.
 SCF Done:  E(RM06) =  -326.837432720     A.U. after   14 cycles
             Convg  =    0.3516D-08             -V/T =  2.0049

 **********************************************************************

            Population analysis using the SCF density.

 **********************************************************************

 Orbital symmetries:
       Occupied  (A) (A) (A) (A) (A) (A) (A) (A) (A) (A) (A) (A)
                 (A) (A) (A) (A) (A) (A) (A) (A) (A) (A) (A) (A)
                 (A) (A) (A) (A)
       Virtual   (A) (A) (A) (A) (A) (A) (A) (A) (A) (A) (A) (A)
                 (A) (A) (A) (A) (A) (A) (A) (A) (A) (A) (A) (A)
                 (A) (A) (A) (A) (A) (A) (A) (A) (A) (A) (A) (A)
                 (A) (A) (A) (A) (A) (A) (A) (A) (A) (A) (A) (A)
                 (A) (A) (A) (A) (A) (A) (A) (A) (A) (A) (A) (A)
                 (A) (A) (A) (A) (A) (A) (A) (A) (A) (A) (A) (A)
                 (A) (A) (A) (A) (A) (A) (A) (A) (A) (A) (A) (A)
                 (A) (A) (A) (A) (A) (A) (A) (A) (A) (A) (A) (A)
                 (A) (A) (A) (A) (A) (A) (A) (A) (A) (A) (A) (A)
                 (A) (A) (A) (A) (A) (A) (A) (A) (A) (A) (A) (A)
                 (A) (A) (A) (A) (A)
 The electronic state is 1-A.
 Alpha  occ. eigenvalues --  -19.23127 -14.37857 -10.31915 -10.27845 -10.27176
 Alpha  occ. eigenvalues --  -10.24277 -10.23186  -1.07723  -0.90839  -0.78848
 Alpha  occ. eigenvalues --   -0.74018  -0.70420  -0.61269  -0.59396  -0.54122
 Alpha  occ. eigenvalues --   -0.50268  -0.46136  -0.45406  -0.44806  -0.42411
 Alpha  occ. eigenvalues --   -0.40240  -0.38995  -0.38104  -0.36505  -0.35398
 Alpha  occ. eigenvalues --   -0.33194  -0.27610  -0.23377
 Alpha virt. eigenvalues --    0.06537   0.08269   0.08969   0.10927   0.12035
 Alpha virt. eigenvalues --    0.12972   0.13778   0.14063   0.15094   0.15871
 Alpha virt. eigenvalues --    0.16268   0.18969   0.21819   0.23223   0.24308
 Alpha virt. eigenvalues --    0.25347   0.26821   0.30649   0.40522   0.43255
 Alpha virt. eigenvalues --    0.44634   0.45899   0.46469   0.48777   0.50098
 Alpha virt. eigenvalues --    0.52463   0.53712   0.54444   0.57261   0.58549
 Alpha virt. eigenvalues --    0.59744   0.61309   0.62364   0.62728   0.64072
 Alpha virt. eigenvalues --    0.64450   0.65525   0.66114   0.67349   0.68830
 Alpha virt. eigenvalues --    0.70740   0.73599   0.78295   0.83162   0.85240
 Alpha virt. eigenvalues --    0.85874   0.87165   0.90099   0.94041   0.99263
 Alpha virt. eigenvalues --    1.03548   1.08903   1.12737   1.14391   1.18558
 Alpha virt. eigenvalues --    1.22012   1.23769   1.25616   1.26808   1.31869
 Alpha virt. eigenvalues --    1.33741   1.39923   1.41060   1.42642   1.45535
 Alpha virt. eigenvalues --    1.46556   1.48166   1.52375   1.54171   1.54790
 Alpha virt. eigenvalues --    1.56399   1.58169   1.59201   1.60701   1.61834
 Alpha virt. eigenvalues --    1.63360   1.65826   1.67534   1.68180   1.72310
 Alpha virt. eigenvalues --    1.74460   1.75009   1.79022   1.79322   1.81230
 Alpha virt. eigenvalues --    1.84338   1.87234   1.89786   1.91296   1.94783
 Alpha virt. eigenvalues --    1.98420   1.98917   2.02317   2.04250   2.06267
 Alpha virt. eigenvalues --    2.11033   2.14136   2.16734   2.20981   2.24648
 Alpha virt. eigenvalues --    2.26442   2.28599   2.31685   2.32409   2.38223
 Alpha virt. eigenvalues --    2.40100   2.42013   2.45362   2.47357   2.48222
 Alpha virt. eigenvalues --    2.49786   2.53773   2.56744   2.57579   2.59251
 Alpha virt. eigenvalues --    2.66853   2.70137   2.78539   2.89092   2.95908
 Alpha virt. eigenvalues --    3.04588   3.09765   3.11148   3.16506   3.32822
          Condensed to atoms (all electrons):
              1          2          3          4          5          6
     1  C    4.662498  -0.077847  -0.102954   0.386755  -0.001140   0.005669
     2  C   -0.077847   4.646485   0.425756   0.005053   0.382391   0.370331
     3  C   -0.102954   0.425756   4.756220   0.004524  -0.028610  -0.017463
     4  H    0.386755   0.005053   0.004524   0.684693  -0.000086  -0.000525
     5  H   -0.001140   0.382391  -0.028610  -0.000086   0.777638  -0.051001
     6  H    0.005669   0.370331  -0.017463  -0.000525  -0.051001   0.693219
     7  H   -0.005729  -0.055066   0.368890   0.000242   0.013585  -0.010212
     8  O    0.313168   0.318344  -0.053438  -0.017605  -0.032987  -0.013030
     9  N    0.356415  -0.076993   0.383552  -0.024707  -0.009274   0.007712
    10  H   -0.044903   0.002591  -0.036160   0.003741   0.001467  -0.000247
    11  C    0.009846  -0.032456   0.395244  -0.000497  -0.001903  -0.001570
    12  H   -0.000446  -0.005612  -0.014291   0.000027  -0.001020   0.003417
    13  H    0.000110   0.008295  -0.008598  -0.000020  -0.000370  -0.000381
    14  H   -0.000888  -0.014382  -0.018771   0.000005   0.007606  -0.000539
    15  C    0.434940  -0.054321  -0.004863  -0.045081  -0.042102   0.002364
    16  H   -0.020850   0.002915   0.000220  -0.003718  -0.001764  -0.000146
    17  H   -0.015950   0.001716   0.000660  -0.003266   0.005543   0.000002
    18  H   -0.015793  -0.043683   0.005937   0.009186  -0.024634   0.001229
              7          8          9         10         11         12
     1  C   -0.005729   0.313168   0.356415  -0.044903   0.009846  -0.000446
     2  C   -0.055066   0.318344  -0.076993   0.002591  -0.032456  -0.005612
     3  C    0.368890  -0.053438   0.383552  -0.036160   0.395244  -0.014291
     4  H    0.000242  -0.017605  -0.024707   0.003741  -0.000497   0.000027
     5  H    0.013585  -0.032987  -0.009274   0.001467  -0.001903  -0.001020
     6  H   -0.010212  -0.013030   0.007712  -0.000247  -0.001570   0.003417
     7  H    0.723948   0.004092  -0.036285   0.007334  -0.033037  -0.004206
     8  O    0.004092   7.902598  -0.045819   0.004027   0.004166   0.000116
     9  N   -0.036285  -0.045819   6.408066   0.371026  -0.047027   0.004745
    10  H    0.007334   0.004027   0.371026   0.614630  -0.010024   0.000222
    11  C   -0.033037   0.004166  -0.047027  -0.010024   4.584445   0.385061
    12  H   -0.004206   0.000116   0.004745   0.000222   0.385061   0.644648
    13  H   -0.013065  -0.000218  -0.000720  -0.000718   0.387194  -0.025637
    14  H    0.011300   0.000003  -0.000897   0.006056   0.377031  -0.026847
    15  C   -0.000422  -0.045578  -0.070074  -0.005301   0.000796  -0.000006
    16  H   -0.000006   0.004475  -0.001931   0.003003  -0.000142  -0.000007
    17  H    0.000206   0.002104   0.007619   0.000381  -0.000111   0.000000
    18  H   -0.000682  -0.002412  -0.005230   0.000797  -0.000743   0.000185
             13         14         15         16         17         18
     1  C    0.000110  -0.000888   0.434940  -0.020850  -0.015950  -0.015793
     2  C    0.008295  -0.014382  -0.054321   0.002915   0.001716  -0.043683
     3  C   -0.008598  -0.018771  -0.004863   0.000220   0.000660   0.005937
     4  H   -0.000020   0.000005  -0.045081  -0.003718  -0.003266   0.009186
     5  H   -0.000370   0.007606  -0.042102  -0.001764   0.005543  -0.024634
     6  H   -0.000381  -0.000539   0.002364  -0.000146   0.000002   0.001229
     7  H   -0.013065   0.011300  -0.000422  -0.000006   0.000206  -0.000682
     8  O   -0.000218   0.000003  -0.045578   0.004475   0.002104  -0.002412
     9  N   -0.000720  -0.000897  -0.070074  -0.001931   0.007619  -0.005230
    10  H   -0.000718   0.006056  -0.005301   0.003003   0.000381   0.000797
    11  C    0.387194   0.377031   0.000796  -0.000142  -0.000111  -0.000743
    12  H   -0.025637  -0.026847  -0.000006  -0.000007   0.000000   0.000185
    13  H    0.640004  -0.036122   0.000025   0.000009  -0.000007  -0.000050
    14  H   -0.036122   0.677588  -0.000155   0.000094   0.000089  -0.000377
    15  C    0.000025  -0.000155   4.694342   0.368146   0.365340   0.415692
    16  H    0.000009   0.000094   0.368146   0.668877  -0.018533  -0.025059
    17  H   -0.000007   0.000089   0.365340  -0.018533   0.645394  -0.033120
    18  H   -0.000050  -0.000377   0.415692  -0.025059  -0.033120   0.690068
 Mulliken atomic charges:
              1
     1  C    0.117099
     2  C    0.196483
     3  C   -0.055856
     4  H    0.001279
     5  H    0.006661
     6  H    0.011170
     7  H    0.029113
     8  O   -0.342004
     9  N   -0.220178
    10  H    0.082079
    11  C   -0.016272
    12  H    0.039651
    13  H    0.050269
    14  H    0.019206
    15  C   -0.013743
    16  H    0.024418
    17  H    0.041935
    18  H    0.028689
 Sum of Mulliken atomic charges =   0.00000
 Mulliken charges with hydrogens summed into heavy atoms:
              1
     1  C    0.118377
     2  C    0.214315
     3  C   -0.026742
     8  O   -0.342004
     9  N   -0.138099
    11  C    0.092855
    15  C    0.081299
 Sum of Mulliken charges with hydrogens summed into heavy atoms =   0.00000
 Electronic spatial extent (au):  <R**2>=            730.7310
 Charge=              0.0000 electrons
 Dipole moment (field-independent basis, Debye):
    X=             -0.7262    Y=             -1.1855    Z=              1.8375  Tot=              2.3042
 Quadrupole moment (field-independent basis, Debye-Ang):
   XX=            -42.4349   YY=            -44.0937   ZZ=            -45.5519
   XY=             -2.9475   XZ=             -0.4806   YZ=              0.3323
 Traceless Quadrupole moment (field-independent basis, Debye-Ang):
   XX=              1.5919   YY=             -0.0669   ZZ=             -1.5251
   XY=             -2.9475   XZ=             -0.4806   YZ=              0.3323
 Octapole moment (field-independent basis, Debye-Ang**2):
  XXX=              3.0476  YYY=             -2.6121  ZZZ=              1.1754  XYY=             -2.9472
  XXY=             -0.8781  XXZ=             -3.4311  XZZ=              2.2279  YZZ=              3.7941
  YYZ=              1.9144  XYZ=              1.8231
 Hexadecapole moment (field-independent basis, Debye-Ang**3):
 XXXX=           -559.2223 YYYY=           -212.6257 ZZZZ=           -173.4717 XXXY=              0.5298
 XXXZ=             -0.7979 YYYX=             -2.4028 YYYZ=              2.6454 ZZZX=             -4.8268
 ZZZY=             -3.8546 XXYY=           -133.8299 XXZZ=           -121.1706 YYZZ=            -68.9332
 XXYZ=              5.0952 YYXZ=             -0.6242 ZZXY=              0.2238
 N-N= 3.446576637236D+02 E-N=-1.450979278494D+03  KE= 3.252295352317D+02
 Calling FoFJK, ICntrl=      2127 FMM=F ISym2X=0 I1Cent= 0 IOpClX= 0 NMat=1 NMatS=1 NMatT=0.
 ***** Axes restored to original set *****
 -------------------------------------------------------------------
 Center     Atomic                   Forces (Hartrees/Bohr)
 Number     Number              X              Y              Z
 -------------------------------------------------------------------
      1        6           0.011823922    0.004387333    0.033259493
      2        6           0.015309028    0.019955245   -0.042213932
      3        6          -0.008115605    0.017431050    0.042371133
      4        1          -0.005381762   -0.011347148   -0.021142069
      5        1           0.020044858    0.010902391    0.004197548
      6        1           0.021615670    0.000449528   -0.012219741
      7        1           0.002907948    0.008160440   -0.023619304
      8        8          -0.014780855    0.011660883    0.030922356
      9        7           0.009351351   -0.019831008   -0.035637464
     10        1          -0.002767502    0.009842394    0.018088277
     11        6          -0.000403003   -0.032998871   -0.024085615
     12        1           0.018560329    0.011240554    0.000851742
     13        1          -0.014381572    0.014960300   -0.004308993
     14        1          -0.004385244   -0.004867071    0.023009588
     15        6          -0.024116834   -0.005994819   -0.022958447
     16        1          -0.020354002   -0.003259415    0.011519752
     17        1           0.006690829   -0.021560497   -0.000081698
     18        1          -0.011617556   -0.009131290    0.022047373
 -------------------------------------------------------------------
 Cartesian Forces:  Max     0.042371133 RMS     0.018160444

 GradGradGradGradGradGradGradGradGradGradGradGradGradGradGradGradGradGrad
 Berny optimization.
 Internal  Forces:  Max     0.065329303 RMS     0.019141206
 Search for a local minimum.
 Step number   1 out of a maximum of  107
 All quantities printed in internal units (Hartrees-Bohrs-Radians)
 Mixed Optimization -- RFO/linear search
 Second derivative matrix not updated -- first step.
 ITU=  0
     Eigenvalues ---    0.00237   0.00237   0.00806   0.01542   0.02960
     Eigenvalues ---    0.03700   0.04242   0.04830   0.05163   0.05720
     Eigenvalues ---    0.05720   0.05720   0.05720   0.05981   0.06987
     Eigenvalues ---    0.07179   0.07629   0.08183   0.09757   0.10454
     Eigenvalues ---    0.14119   0.15599   0.16000   0.16000   0.16000
     Eigenvalues ---    0.16000   0.16000   0.16000   0.16998   0.20133
     Eigenvalues ---    0.28383   0.28519   0.28519   0.32324   0.34088
     Eigenvalues ---    0.35381   0.37230   0.37230   0.37230   0.37230
     Eigenvalues ---    0.37230   0.37230   0.37230   0.37230   0.37230
     Eigenvalues ---    0.37230   0.38577   0.47688
 RFO step:  Lambda=-1.38455723D-01 EMin= 2.36824053D-03
 Linear search not attempted -- first point.
 Maximum step size (   0.300) exceeded in Quadratic search.
    -- Step size scaled by   0.651
 Iteration  1 RMS(Cart)=  0.16489101 RMS(Int)=  0.00872329
 Iteration  2 RMS(Cart)=  0.01101706 RMS(Int)=  0.00147487
 Iteration  3 RMS(Cart)=  0.00010155 RMS(Int)=  0.00147403
 Iteration  4 RMS(Cart)=  0.00000020 RMS(Int)=  0.00147403
 Variable       Old X    -DE/DX   Delta X   Delta X   Delta X     New X
                                 (Linear)    (Quad)   (Total)
    R1        2.02201   0.02125   0.00000   0.02707   0.02707   2.04907
    R2        2.71507   0.02256   0.00000   0.02790   0.02943   2.74450
    R3        2.81943   0.00314   0.00000   0.00568   0.00787   2.82730
    R4        2.91018   0.02241   0.00000   0.03441   0.03441   2.94459
    R5        2.83845   0.00632   0.00000   0.00803   0.00540   2.84385
    R6        2.02201  -0.00185   0.00000  -0.00236  -0.00236   2.01964
    R7        2.02201   0.02216   0.00000   0.02823   0.02823   2.05024
    R8        2.74253  -0.00035   0.00000  -0.00174  -0.00206   2.74047
    R9        2.02201   0.02505   0.00000   0.03191   0.03191   2.05392
   R10        2.75669   0.02564   0.00000   0.03295   0.03223   2.78892
   R11        2.91018  -0.01197   0.00000  -0.01839  -0.01839   2.89179
   R12        1.88973   0.01690   0.00000   0.01787   0.01787   1.90760
   R13        2.02201   0.02158   0.00000   0.02748   0.02748   2.04949
   R14        2.02201   0.02109   0.00000   0.02687   0.02687   2.04887
   R15        2.02201   0.02378   0.00000   0.03029   0.03029   2.05230
   R16        2.02201   0.02338   0.00000   0.02979   0.02979   2.05179
   R17        2.02201   0.02247   0.00000   0.02862   0.02862   2.05063
   R18        2.02201   0.00016   0.00000   0.00020   0.00020   2.02221
    A1        1.99512  -0.00175   0.00000  -0.02468  -0.02300   1.97212
    A2        1.94522   0.01334   0.00000   0.01786   0.01690   1.96212
    A3        1.90458  -0.04453   0.00000  -0.10392  -0.10148   1.80310
    A4        1.87015  -0.04305   0.00000  -0.07670  -0.08055   1.78960
    A5        1.84599   0.05415   0.00000   0.13785   0.13816   1.98416
    A6        1.89828   0.02596   0.00000   0.06133   0.06089   1.95918
    A7        1.95320   0.00614   0.00000  -0.00040  -0.00084   1.95236
    A8        1.96625   0.01046   0.00000   0.02917   0.03026   1.99651
    A9        1.73631  -0.02271   0.00000  -0.03024  -0.03181   1.70450
   A10        1.88551  -0.00832   0.00000  -0.01731  -0.01750   1.86801
   A11        1.93605   0.00115   0.00000   0.00066   0.00110   1.93716
   A12        1.98523   0.01349   0.00000   0.01878   0.01936   2.00458
   A13        1.86071  -0.00723   0.00000  -0.01884  -0.01828   1.84243
   A14        1.78091   0.01132   0.00000   0.03024   0.02829   1.80920
   A15        2.03182  -0.00445   0.00000  -0.00413  -0.00414   2.02768
   A16        1.90764  -0.01950   0.00000  -0.05024  -0.04964   1.85800
   A17        1.89209   0.00704   0.00000   0.01298   0.01272   1.90481
   A18        1.98355   0.01022   0.00000   0.02358   0.02398   2.00753
   A19        1.63919   0.05466   0.00000   0.13102   0.13446   1.77365
   A20        1.76840   0.02398   0.00000   0.05755   0.05934   1.82774
   A21        1.86221  -0.01172   0.00000  -0.01241  -0.01532   1.84689
   A22        2.04744   0.01459   0.00000   0.03506   0.03387   2.08131
   A23        1.91063   0.00258   0.00000   0.00569   0.00567   1.91631
   A24        1.91063   0.00180   0.00000   0.00383   0.00382   1.91445
   A25        1.91063   0.00281   0.00000   0.00616   0.00614   1.91677
   A26        1.91063  -0.00227   0.00000  -0.00503  -0.00504   1.90560
   A27        1.91063  -0.00250   0.00000  -0.00526  -0.00528   1.90535
   A28        1.91063  -0.00242   0.00000  -0.00538  -0.00540   1.90524
   A29        1.91063  -0.00400   0.00000  -0.01166  -0.01174   1.89890
   A30        1.91063  -0.00276   0.00000  -0.00591  -0.00639   1.90424
   A31        1.91063   0.03594   0.00000   0.08119   0.08080   1.99143
   A32        1.91063  -0.00280   0.00000  -0.01176  -0.01191   1.89872
   A33        1.91063  -0.01621   0.00000  -0.03557  -0.03558   1.87505
   A34        1.91063  -0.01018   0.00000  -0.01630  -0.01702   1.89361
    D1        3.01119  -0.02420   0.00000  -0.11373  -0.11186   2.89933
    D2        0.84669  -0.00778   0.00000  -0.06226  -0.06362   0.78307
    D3       -1.17630  -0.04354   0.00000  -0.16310  -0.15963  -1.33593
    D4       -2.53734   0.03531   0.00000   0.12445   0.12419  -2.41316
    D5        1.59441   0.01217   0.00000   0.06199   0.06189   1.65630
    D6       -0.34263   0.01154   0.00000   0.05095   0.05258  -0.29005
    D7       -2.49406  -0.01160   0.00000  -0.01151  -0.00972  -2.50378
    D8        1.64536   0.06533   0.00000   0.20229   0.20060   1.84596
    D9       -0.50607   0.04218   0.00000   0.13983   0.13831  -0.36776
   D10       -1.03767   0.00491   0.00000   0.01872   0.01826  -1.01941
   D11        1.05673  -0.00265   0.00000  -0.00643  -0.00700   1.04973
   D12       -3.13206   0.00521   0.00000   0.01970   0.01946  -3.11261
   D13        3.09151  -0.00032   0.00000   0.02433   0.02852   3.12002
   D14       -1.09728  -0.00788   0.00000  -0.00082   0.00326  -1.09402
   D15        0.99711  -0.00002   0.00000   0.02531   0.02972   1.02683
   D16        1.08775   0.00993   0.00000   0.01464   0.01080   1.09856
   D17       -3.10104   0.00237   0.00000  -0.01051  -0.01446  -3.11549
   D18       -1.00664   0.01022   0.00000   0.01562   0.01200  -0.99464
   D19        3.08118  -0.00411   0.00000  -0.03020  -0.02982   3.05136
   D20       -1.20186  -0.02357   0.00000  -0.07995  -0.07984  -1.28170
   D21        0.96803  -0.00483   0.00000  -0.02996  -0.02979   0.93824
   D22        0.95243  -0.00546   0.00000  -0.02867  -0.02860   0.92383
   D23        2.95258  -0.02492   0.00000  -0.07842  -0.07862   2.87396
   D24       -1.16071  -0.00618   0.00000  -0.02843  -0.02857  -1.18929
   D25       -1.15601  -0.01259   0.00000  -0.04588  -0.04561  -1.20162
   D26        0.84413  -0.03205   0.00000  -0.09564  -0.09563   0.74851
   D27        3.01403  -0.01331   0.00000  -0.04564  -0.04558   2.96845
   D28       -1.00694   0.00844   0.00000   0.06085   0.06212  -0.94482
   D29        1.05193   0.00404   0.00000   0.04488   0.04534   1.09727
   D30       -3.10153   0.00379   0.00000   0.03631   0.03727  -3.06426
   D31       -0.29953   0.00760   0.00000   0.01523   0.01486  -0.28467
   D32        1.71925   0.01621   0.00000   0.05508   0.05638   1.77563
   D33        1.66581  -0.00258   0.00000  -0.01073  -0.01174   1.65406
   D34       -2.59860   0.00604   0.00000   0.02913   0.02978  -2.56882
   D35       -2.50134  -0.00077   0.00000  -0.01455  -0.01584  -2.51718
   D36       -0.48256   0.00785   0.00000   0.02531   0.02569  -0.45687
   D37        1.05864  -0.00876   0.00000  -0.02357  -0.02303   1.03561
   D38       -3.13015  -0.00886   0.00000  -0.02390  -0.02336   3.12967
   D39       -1.03576  -0.00901   0.00000  -0.02438  -0.02384  -1.05960
   D40       -1.03776  -0.00175   0.00000  -0.00619  -0.00613  -1.04389
   D41        1.05663  -0.00185   0.00000  -0.00652  -0.00646   1.05017
   D42       -3.13216  -0.00199   0.00000  -0.00700  -0.00694  -3.13910
   D43        3.12071   0.01131   0.00000   0.03298   0.03238  -3.13009
   D44       -1.06808   0.01121   0.00000   0.03265   0.03205  -1.03603
   D45        1.02632   0.01106   0.00000   0.03217   0.03157   1.05789
         Item               Value     Threshold  Converged?
 Maximum Force            0.065329     0.000015     NO 
 RMS     Force            0.019141     0.000010     NO 
 Maximum Displacement     0.588956     0.000060     NO 
 RMS     Displacement     0.167722     0.000040     NO 
 Predicted change in Energy=-7.866080D-02
 GradGradGradGradGradGradGradGradGradGradGradGradGradGradGradGradGradGrad

                          Input orientation:                          
 ---------------------------------------------------------------------
 Center     Atomic      Atomic             Coordinates (Angstroms)
 Number     Number       Type             X           Y           Z
 ---------------------------------------------------------------------
      1          6           0        0.933738    0.702899   -0.128004
      2          6           0        2.810986    1.896097    0.208387
      3          6           0        1.731890    2.915141   -0.040256
      4          1           0        0.289304    0.129027   -0.784611
      5          1           0        2.836396    1.584663    1.230438
      6          1           0        3.810911    2.231047   -0.046663
      7          1           0        1.857015    3.226023   -1.074191
      8          8           0        2.284608    0.845777   -0.641800
      9          7           0        0.487037    2.124046    0.010701
     10          1           0       -0.082333    2.153476    0.843742
     11          6           0        1.750394    4.151618    0.861135
     12          1           0        2.694462    4.673599    0.749303
     13          1           0        0.940373    4.817249    0.584858
     14          1           0        1.628589    3.853195    1.898232
     15          6           0        0.855820   -0.074398    1.220239
     16          1           0       -0.180651   -0.115423    1.541056
     17          1           0        1.214802   -1.087017    1.067666
     18          1           0        1.419729    0.369721    2.013895
 ---------------------------------------------------------------------
                    Distance matrix (angstroms):
                    1          2          3          4          5
     1  C    0.000000
     2  C    2.249653   0.000000
     3  C    2.353457   1.504899   0.000000
     4  H    1.084324   3.235346   3.224524   0.000000
     5  H    2.498596   1.068750   2.145872   3.559070   0.000000
     6  H    3.258830   1.084938   2.188687   4.167106   1.731612
     7  H    2.848485   2.079368   1.086888   3.483240   2.994089
     8  O    1.452325   1.450194   2.224775   2.124939   2.087031
     9  N    1.496142   2.343455   1.475835   2.156785   2.701515
    10  H    2.020115   2.973418   2.157079   2.624508   2.998677
    11  C    3.679535   2.576492   1.530268   4.585248   2.811591
    12  H    4.431283   2.832081   2.154558   5.365707   3.129402
    13  H    4.175655   3.489134   2.152970   4.927349   3.802800
    14  H    3.809569   2.843216   2.156004   4.781294   2.655369
    15  C    1.558211   2.954551   3.360609   2.093262   2.583654
    16  H    2.167320   3.843451   3.916974   2.385234   3.476975
    17  H    2.170813   3.490722   4.184752   2.401300   3.129527
    18  H    2.221470   2.743225   3.285749   3.027777   2.024064
                    6          7          8          9         10
     6  H    0.000000
     7  H    2.421467   0.000000
     8  O    2.145405   2.456700   0.000000
     9  N    3.326091   2.065958   2.300216   0.000000
    10  H    3.994519   2.930852   3.085339   1.009458   0.000000
    11  C    2.959463   2.147925   3.670529   2.535814   2.711413
    12  H    2.801085   2.474252   4.093332   3.452315   3.751070
    13  H    3.915003   2.474808   4.368552   2.790791   2.865072
    14  H    3.343129   3.046445   3.990826   2.802833   2.632157
    15  C    3.956347   4.142412   2.520980   2.536167   2.446488
    16  H    4.894828   4.707108   3.430199   2.793388   2.375672
    17  H    4.357874   4.858221   2.793287   3.457998   3.497642
    18  H    3.664449   4.229179   2.833260   2.821411   2.609067
                   11         12         13         14         15
    11  C    0.000000
    12  H    1.084544   0.000000
    13  H    1.084218   1.767627   0.000000
    14  H    1.086031   1.768950   1.768614   0.000000
    15  C    4.334562   5.113302   4.933464   4.059906   0.000000
    16  H    4.732744   5.641620   5.148035   4.376169   1.085762
    17  H    5.269991   5.956127   5.930327   5.026605   1.085147
    18  H    3.967485   4.663421   4.696002   3.491646   1.070105
                   16         17         18
    16  H    0.000000
    17  H    1.765045   0.000000
    18  H    1.737860   1.749123   0.000000
 Stoichiometry    C5H11NO
 Framework group  C1[X(C5H11NO)]
 Deg. of freedom    48
 Full point group                 C1      NOp   1
 Largest Abelian subgroup         C1      NOp   1
 Largest concise Abelian subgroup C1      NOp   1
                         Standard orientation:                         
 ---------------------------------------------------------------------
 Center     Atomic      Atomic             Coordinates (Angstroms)
 Number     Number       Type             X           Y           Z
 ---------------------------------------------------------------------
      1          6           0        1.211251   -0.131074   -0.519800
      2          6           0       -0.361499    1.105927    0.508415
      3          6           0       -1.121728    0.105734   -0.320070
      4          1           0        1.917099   -0.269247   -1.331246
      5          1           0       -0.073319    0.701706    1.454874
      6          1           0       -0.901239    2.025918    0.706882
      7          1           0       -1.441655    0.645335   -1.207653
      8          8           0        0.786164    1.249157   -0.366467
      9          7           0       -0.081744   -0.844269   -0.760544
     10          1           0        0.003569   -1.734352   -0.292058
     11          6           0       -2.342355   -0.533584    0.345560
     12          1           0       -3.054171    0.235931    0.623769
     13          1           0       -2.815124   -1.223591   -0.344301
     14          1           0       -2.035342   -1.074126    1.236077
     15          6           0        1.973250   -0.692514    0.718007
     16          1           0        2.233168   -1.729462    0.528112
     17          1           0        2.886347   -0.123856    0.860936
     18          1           0        1.410040   -0.664562    1.627478
 ---------------------------------------------------------------------
 Rotational constants (GHZ):      4.5813988      2.1278522      1.8458440
 Standard basis: CC-pVDZ (5D, 7F)
 There are   153 symmetry adapted basis functions of A   symmetry.
 Integral buffers will be    131072 words long.
 Raffenetti 2 integral format.
 Two-electron integral symmetry is turned on.
   153 basis functions,   308 primitive gaussians,   160 cartesian basis functions
    28 alpha electrons       28 beta electrons
       nuclear repulsion energy       337.4148879901 Hartrees.
 NAtoms=   18 NActive=   18 NUniq=   18 SFac= 1.00D+00 NAtFMM=   60 NAOKFM=F Big=F
 One-electron integrals computed using PRISM.
 NBasis=   153 RedAO= T  NBF=   153
 NBsUse=   153 1.00D-06 NBFU=   153
 Initial guess read from the read-write file.
 B after Tr=     0.000000    0.000000    0.000000
         Rot=    1.000000    0.000000    0.000000    0.000000 Ang=   0.00 deg.
 Initial guess orbital symmetries:
       Occupied  (A) (A) (A) (A) (A) (A) (A) (A) (A) (A) (A) (A)
                 (A) (A) (A) (A) (A) (A) (A) (A) (A) (A) (A) (A)
                 (A) (A) (A) (A)
       Virtual   (A) (A) (A) (A) (A) (A) (A) (A) (A) (A) (A) (A)
                 (A) (A) (A) (A) (A) (A) (A) (A) (A) (A) (A) (A)
                 (A) (A) (A) (A) (A) (A) (A) (A) (A) (A) (A) (A)
                 (A) (A) (A) (A) (A) (A) (A) (A) (A) (A) (A) (A)
                 (A) (A) (A) (A) (A) (A) (A) (A) (A) (A) (A) (A)
                 (A) (A) (A) (A) (A) (A) (A) (A) (A) (A) (A) (A)
                 (A) (A) (A) (A) (A) (A) (A) (A) (A) (A) (A) (A)
                 (A) (A) (A) (A) (A) (A) (A) (A) (A) (A) (A) (A)
                 (A) (A) (A) (A) (A) (A) (A) (A) (A) (A) (A) (A)
                 (A) (A) (A) (A) (A) (A) (A) (A) (A) (A) (A) (A)
                 (A) (A) (A) (A) (A)
 Harris functional with IExCor= 1009 diagonalized for initial guess.
 ExpMin= 1.22D-01 ExpMax= 1.17D+04 ExpMxC= 4.01D+02 IAcc=3 IRadAn=         5 AccDes= 0.00D+00
 HarFok:  IExCor= 1009 AccDes= 0.00D+00 IRadAn=         5 IDoV= 1
 ScaDFX=  1.000000  1.000000  1.000000  1.000000
 FoFCou: FMM=F IPFlag=           0 FMFlag=      100000 FMFlg1=           0
         NFxFlg=           0 DoJE=T BraDBF=F KetDBF=T FulRan=T
         Omega=  0.000000  0.000000  1.000000  0.000000  0.000000 ICntrl=     500 IOpCl=  0
         NMat0=    1 NMatS0=    1 NMatT0=    0 NMatD0=    1 NMtDS0=    0 NMtDT0=    0
         I1Cent=           4 NGrid=           0.
 Petite list used in FoFCou.
 Requested convergence on RMS density matrix=1.00D-08 within 128 cycles.
 Requested convergence on MAX density matrix=1.00D-06.
 Requested convergence on             energy=1.00D-06.
 No special actions if energy rises.
 Keep R1 ints in memory in canonical form, NReq=85546939.
 Integral accuracy reduced to 1.0D-05 until final iterations.
 Initial convergence to 1.0D-05 achieved.  Increase integral accuracy.
 SCF Done:  E(RM06) =  -326.872735351     A.U. after   12 cycles
             Convg  =    0.4417D-08             -V/T =  2.0065
 Calling FoFJK, ICntrl=      2127 FMM=F ISym2X=0 I1Cent= 0 IOpClX= 0 NMat=1 NMatS=1 NMatT=0.
 ***** Axes restored to original set *****
 -------------------------------------------------------------------
 Center     Atomic                   Forces (Hartrees/Bohr)
 Number     Number              X              Y              Z
 -------------------------------------------------------------------
      1        6           0.020184585    0.020178454    0.024007940
      2        6          -0.023797740   -0.002129989   -0.031842814
      3        6          -0.009124726    0.014002528    0.023335796
      4        1           0.002106632   -0.001487087   -0.021298111
      5        1           0.001117472   -0.007419341    0.024964455
      6        1           0.008371667   -0.003156304   -0.012875576
      7        1           0.001554954    0.006355957   -0.011943001
      8        8          -0.007552611   -0.012757439    0.024950621
      9        7           0.005451657   -0.023546646   -0.013999968
     10        1           0.002692334    0.013799726    0.012199781
     11        6          -0.004287765   -0.022896923   -0.013400371
     12        1           0.008880295    0.006423636   -0.000374350
     13        1          -0.007525265    0.008197198   -0.000872730
     14        1          -0.001186654   -0.001257379    0.012079996
     15        6           0.000135946    0.007847798   -0.031025215
     16        1          -0.011104256   -0.001687000    0.002251631
     17        1           0.002343180   -0.010774250   -0.000877778
     18        1           0.011740294    0.010307061    0.014719694
 -------------------------------------------------------------------
 Cartesian Forces:  Max     0.031842814 RMS     0.013739792

 GradGradGradGradGradGradGradGradGradGradGradGradGradGradGradGradGradGrad
 Berny optimization.
 Using GEDIIS/GDIIS optimizer.
 Internal  Forces:  Max     0.026062687 RMS     0.007093770
 Search for a local minimum.
 Step number   2 out of a maximum of  107
 All quantities printed in internal units (Hartrees-Bohrs-Radians)
 Mixed Optimization -- RFO/linear search
 Update second derivatives using D2CorX and points    1    2
 DE= -3.53D-02 DEPred=-7.87D-02 R= 4.49D-01
 Trust test= 4.49D-01 RLast= 5.12D-01 DXMaxT set to 3.00D-01
 ITU=  0  0
 Use linear search instead of GDIIS.
     Eigenvalues ---    0.00237   0.00238   0.00816   0.01892   0.02926
     Eigenvalues ---    0.03606   0.04239   0.04890   0.05066   0.05237
     Eigenvalues ---    0.05658   0.05671   0.05792   0.05933   0.07003
     Eigenvalues ---    0.07277   0.07418   0.08248   0.10114   0.10422
     Eigenvalues ---    0.14645   0.15852   0.15973   0.16000   0.16000
     Eigenvalues ---    0.16000   0.16000   0.16891   0.19467   0.26732
     Eigenvalues ---    0.28335   0.28799   0.31829   0.32265   0.34166
     Eigenvalues ---    0.34529   0.35889   0.37230   0.37230   0.37230
     Eigenvalues ---    0.37230   0.37230   0.37230   0.37230   0.37230
     Eigenvalues ---    0.37714   0.47508   0.55200
 RFO step:  Lambda=-2.77530135D-02 EMin= 2.36823119D-03
 Quartic linear search produced a step of  0.08537.
 Iteration  1 RMS(Cart)=  0.05747331 RMS(Int)=  0.00328429
 Iteration  2 RMS(Cart)=  0.00389790 RMS(Int)=  0.00082847
 Iteration  3 RMS(Cart)=  0.00001277 RMS(Int)=  0.00082838
 Iteration  4 RMS(Cart)=  0.00000001 RMS(Int)=  0.00082838
 Variable       Old X    -DE/DX   Delta X   Delta X   Delta X     New X
                                 (Linear)    (Quad)   (Total)
    R1        2.04907   0.01243   0.00231   0.02697   0.02928   2.07836
    R2        2.74450  -0.02401   0.00251  -0.06740  -0.06517   2.67933
    R3        2.82730  -0.00574   0.00067  -0.02336  -0.02227   2.80503
    R4        2.94459  -0.01591   0.00294  -0.05988  -0.05694   2.88765
    R5        2.84385   0.00402   0.00046   0.01761   0.01775   2.86160
    R6        2.01964   0.02606  -0.00020   0.06866   0.06846   2.08811
    R7        2.05024   0.00977   0.00241   0.01977   0.02218   2.07241
    R8        2.74047  -0.01590  -0.00018  -0.04026  -0.04069   2.69978
    R9        2.05392   0.01336   0.00272   0.02840   0.03113   2.08505
   R10        2.78892  -0.01042   0.00275  -0.03252  -0.02934   2.75958
   R11        2.89179  -0.00927  -0.00157  -0.02743  -0.02900   2.86279
   R12        1.90760   0.00895   0.00153   0.01475   0.01627   1.92387
   R13        2.04949   0.01086   0.00235   0.02277   0.02512   2.07461
   R14        2.04887   0.01088   0.00229   0.02295   0.02524   2.07412
   R15        2.05230   0.01201   0.00259   0.02521   0.02780   2.08010
   R16        2.05179   0.01133   0.00254   0.02353   0.02607   2.07787
   R17        2.05063   0.01095   0.00244   0.02278   0.02523   2.07586
   R18        2.02221   0.02138   0.00002   0.05590   0.05591   2.07812
    A1        1.97212  -0.00696  -0.00196  -0.09119  -0.09179   1.88033
    A2        1.96212  -0.00217   0.00144  -0.01628  -0.01467   1.94744
    A3        1.80310   0.00802  -0.00866   0.06723   0.05765   1.86075
    A4        1.78960   0.00970  -0.00688   0.07135   0.06294   1.85254
    A5        1.98416  -0.00643   0.01179  -0.03758  -0.02600   1.95816
    A6        1.95918  -0.00308   0.00520  -0.00051   0.00517   1.96435
    A7        1.95236  -0.00338  -0.00007  -0.01681  -0.01659   1.93577
    A8        1.99651   0.00265   0.00258   0.01649   0.02116   2.01767
    A9        1.70450   0.00906  -0.00272   0.07837   0.07337   1.77786
   A10        1.86801   0.00279  -0.00149   0.02008   0.01732   1.88534
   A11        1.93716  -0.00358   0.00009  -0.02441  -0.02410   1.91305
   A12        2.00458  -0.00782   0.00165  -0.07475  -0.07317   1.93141
   A13        1.84243  -0.00030  -0.00156   0.01094   0.00920   1.85163
   A14        1.80920  -0.00811   0.00242  -0.02526  -0.02423   1.78497
   A15        2.02768   0.00624  -0.00035   0.01721   0.01736   2.04504
   A16        1.85800   0.00026  -0.00424   0.00096  -0.00314   1.85485
   A17        1.90481  -0.00118   0.00109   0.00459   0.00518   1.90999
   A18        2.00753   0.00242   0.00205  -0.00859  -0.00565   2.00188
   A19        1.77365  -0.00323   0.01148  -0.00361   0.00356   1.77721
   A20        1.82774  -0.00097   0.00507   0.00608   0.00944   1.83718
   A21        1.84689   0.00659  -0.00131   0.06363   0.06327   1.91016
   A22        2.08131  -0.00725   0.00289  -0.08381  -0.08019   2.00112
   A23        1.91631   0.00110   0.00048   0.00482   0.00526   1.92157
   A24        1.91445   0.00284   0.00033   0.01538   0.01562   1.93007
   A25        1.91677   0.00227   0.00052   0.01193   0.01238   1.92915
   A26        1.90560  -0.00208  -0.00043  -0.01132  -0.01179   1.89381
   A27        1.90535  -0.00177  -0.00045  -0.00934  -0.00982   1.89553
   A28        1.90524  -0.00242  -0.00046  -0.01183  -0.01241   1.89283
   A29        1.89890  -0.00035  -0.00100  -0.00223  -0.00326   1.89564
   A30        1.90424   0.00184  -0.00055   0.01143   0.01088   1.91512
   A31        1.99143  -0.00262   0.00690  -0.02526  -0.01838   1.97305
   A32        1.89872  -0.00120  -0.00102  -0.00922  -0.01023   1.88849
   A33        1.87505   0.00158  -0.00304   0.01449   0.01141   1.88646
   A34        1.89361   0.00074  -0.00145   0.01096   0.00950   1.90311
    D1        2.89933  -0.00468  -0.00955  -0.13238  -0.14354   2.75579
    D2        0.78307  -0.00459  -0.00543  -0.11064  -0.11542   0.66765
    D3       -1.33593  -0.00376  -0.01363  -0.13652  -0.14867  -1.48460
    D4       -2.41316   0.00495   0.01060   0.12914   0.14009  -2.27307
    D5        1.65630   0.01042   0.00528   0.18957   0.19478   1.85108
    D6       -0.29005   0.00152   0.00449   0.05584   0.06072  -0.22933
    D7       -2.50378   0.00699  -0.00083   0.11627   0.11541  -2.38837
    D8        1.84596  -0.00174   0.01712   0.05510   0.07307   1.91903
    D9       -0.36776   0.00372   0.01181   0.11553   0.12776  -0.24001
   D10       -1.01941  -0.00218   0.00156  -0.02711  -0.02609  -1.04551
   D11        1.04973  -0.00277  -0.00060  -0.03293  -0.03408   1.01565
   D12       -3.11261  -0.00224   0.00166  -0.02756  -0.02646  -3.13907
   D13        3.12002   0.00460   0.00243   0.06084   0.06317  -3.09999
   D14       -1.09402   0.00401   0.00028   0.05502   0.05519  -1.03883
   D15        1.02683   0.00454   0.00254   0.06039   0.06280   1.08963
   D16        1.09856  -0.00141   0.00092  -0.00504  -0.00345   1.09511
   D17       -3.11549  -0.00200  -0.00123  -0.01086  -0.01143  -3.12692
   D18       -0.99464  -0.00147   0.00102  -0.00550  -0.00382  -0.99845
   D19        3.05136   0.00014  -0.00255  -0.05803  -0.06004   2.99132
   D20       -1.28170  -0.00290  -0.00682  -0.06291  -0.06977  -1.35147
   D21        0.93824  -0.00202  -0.00254  -0.08269  -0.08498   0.85327
   D22        0.92383  -0.00293  -0.00244  -0.08406  -0.08610   0.83773
   D23        2.87396  -0.00598  -0.00671  -0.08894  -0.09583   2.77812
   D24       -1.18929  -0.00509  -0.00244  -0.10872  -0.11104  -1.30033
   D25       -1.20162  -0.00043  -0.00389  -0.05124  -0.05560  -1.25722
   D26        0.74851  -0.00348  -0.00816  -0.05612  -0.06533   0.68317
   D27        2.96845  -0.00259  -0.00389  -0.07590  -0.08054   2.88791
   D28       -0.94482   0.00489   0.00530   0.10669   0.11231  -0.83252
   D29        1.09727   0.00437   0.00387   0.11842   0.12128   1.21855
   D30       -3.06426  -0.00047   0.00318   0.07107   0.07719  -2.98707
   D31       -0.28467   0.00275   0.00127   0.00865   0.01083  -0.27384
   D32        1.77563   0.00619   0.00481   0.04560   0.05061   1.82624
   D33        1.65406  -0.00081  -0.00100   0.01076   0.01007   1.66413
   D34       -2.56882   0.00263   0.00254   0.04771   0.04985  -2.51897
   D35       -2.51718  -0.00061  -0.00135   0.01191   0.01085  -2.50632
   D36       -0.45687   0.00284   0.00219   0.04886   0.05064  -0.40624
   D37        1.03561   0.00243  -0.00197   0.02345   0.02186   1.05747
   D38        3.12967   0.00231  -0.00199   0.02207   0.02044  -3.13307
   D39       -1.05960   0.00251  -0.00204   0.02450   0.02287  -1.03673
   D40       -1.04389  -0.00049  -0.00052  -0.00581  -0.00634  -1.05023
   D41        1.05017  -0.00060  -0.00055  -0.00718  -0.00776   1.04241
   D42       -3.13910  -0.00041  -0.00059  -0.00476  -0.00533   3.13875
   D43       -3.13009  -0.00156   0.00276  -0.00472  -0.00233  -3.13242
   D44       -1.03603  -0.00167   0.00274  -0.00609  -0.00375  -1.03977
   D45        1.05789  -0.00148   0.00270  -0.00367  -0.00132   1.05657
         Item               Value     Threshold  Converged?
 Maximum Force            0.026063     0.000015     NO 
 RMS     Force            0.007094     0.000010     NO 
 Maximum Displacement     0.234666     0.000060     NO 
 RMS     Displacement     0.057798     0.000040     NO 
 Predicted change in Energy=-1.568532D-02
 GradGradGradGradGradGradGradGradGradGradGradGradGradGradGradGradGradGrad

                          Input orientation:                          
 ---------------------------------------------------------------------
 Center     Atomic      Atomic             Coordinates (Angstroms)
 Number     Number       Type             X           Y           Z
 ---------------------------------------------------------------------
      1          6           0        0.964633    0.708402   -0.093691
      2          6           0        2.809303    1.891796    0.186349
      3          6           0        1.722393    2.921943   -0.038381
      4          1           0        0.382046    0.164812   -0.851782
      5          1           0        2.889827    1.630566    1.256980
      6          1           0        3.807919    2.170851   -0.170843
      7          1           0        1.814622    3.239116   -1.091139
      8          8           0        2.307531    0.771251   -0.544181
      9          7           0        0.508251    2.114431    0.040894
     10          1           0       -0.015662    2.219206    0.907498
     11          6           0        1.730282    4.142867    0.858429
     12          1           0        2.669383    4.697374    0.732505
     13          1           0        0.895442    4.810318    0.608986
     14          1           0        1.636113    3.846844    1.914429
     15          6           0        0.829013   -0.078919    1.208908
     16          1           0       -0.235359   -0.127198    1.480592
     17          1           0        1.192432   -1.105030    1.061541
     18          1           0        1.374901    0.378112    2.047033
 ---------------------------------------------------------------------
                    Distance matrix (angstroms):
                    1          2          3          4          5
     1  C    0.000000
     2  C    2.209446   0.000000
     3  C    2.340304   1.514292   0.000000
     4  H    1.099819   3.154643   3.171739   0.000000
     5  H    2.526078   1.104978   2.169912   3.589468   0.000000
     6  H    3.198279   1.096673   2.220609   4.027963   1.781426
     7  H    2.849894   2.106332   1.103360   3.400134   3.042558
     8  O    1.417839   1.428661   2.285541   2.042029   2.078864
     9  N    1.484357   2.316369   1.460309   2.147979   2.717516
    10  H    2.060555   2.933885   2.099847   2.733820   2.985046
    11  C    3.645312   2.585207   1.514921   4.535139   2.795539
    12  H    4.415956   2.861666   2.154811   5.318459   3.119131
    13  H    4.162241   3.515573   2.160762   4.896748   3.808975
    14  H    3.785927   2.860917   2.162488   4.773046   2.629815
    15  C    1.528081   2.975046   3.370316   2.122647   2.677985
    16  H    2.148622   3.875742   3.929038   2.430315   3.592566
    17  H    2.162172   3.515850   4.207992   2.435166   3.225342
    18  H    2.204566   2.794798   3.307685   3.071545   2.118449
                    6          7          8          9         10
     6  H    0.000000
     7  H    2.441591   0.000000
     8  O    2.085528   2.575360   0.000000
     9  N    3.306936   2.062285   2.320313   0.000000
    10  H    3.973025   2.895635   3.098576   1.018069   0.000000
    11  C    3.043817   2.150510   3.697070   2.505250   2.598306
    12  H    2.914724   2.486526   4.144311   3.438083   3.658060
    13  H    4.007174   2.490781   4.431462   2.782167   2.762802
    14  H    3.445875   3.071585   3.994351   2.789885   2.528136
    15  C    3.979832   4.155839   2.445839   2.505579   2.466922
    16  H    4.935218   4.706197   3.372419   2.765970   2.425349
    17  H    4.369318   4.888021   2.709653   3.445976   3.540306
    18  H    3.748662   4.269288   2.781861   2.791143   2.573292
                   11         12         13         14         15
    11  C    0.000000
    12  H    1.097837   0.000000
    13  H    1.097575   1.781820   0.000000
    14  H    1.100742   1.785496   1.783552   0.000000
    15  C    4.331119   5.140710   4.926353   4.069494   0.000000
    16  H    4.741760   5.680991   5.139793   4.414027   1.099559
    17  H    5.279295   5.996461   5.940063   5.044336   1.098496
    18  H    3.963894   4.696775   4.684262   3.481080   1.099693
                   16         17         18
    16  H    0.000000
    17  H    1.780547   0.000000
    18  H    1.780206   1.790027   0.000000
 Stoichiometry    C5H11NO
 Framework group  C1[X(C5H11NO)]
 Deg. of freedom    48
 Full point group                 C1      NOp   1
 Largest Abelian subgroup         C1      NOp   1
 Largest concise Abelian subgroup C1      NOp   1
                         Standard orientation:                         
 ---------------------------------------------------------------------
 Center     Atomic      Atomic             Coordinates (Angstroms)
 Number     Number       Type             X           Y           Z
 ---------------------------------------------------------------------
      1          6           0        1.182969   -0.141718   -0.500530
      2          6           0       -0.347843    1.130450    0.458560
      3          6           0       -1.137801    0.107961   -0.331099
      4          1           0        1.838492   -0.206216   -1.381286
      5          1           0       -0.117044    0.753976    1.471465
      6          1           0       -0.818002    2.115834    0.561805
      7          1           0       -1.458119    0.616954   -1.256154
      8          8           0        0.856553    1.223990   -0.304167
      9          7           0       -0.104426   -0.845530   -0.725422
     10          1           0       -0.109586   -1.718316   -0.201321
     11          6           0       -2.343147   -0.509600    0.347684
     12          1           0       -3.073226    0.269772    0.602260
     13          1           0       -2.827971   -1.238126   -0.314786
     14          1           0       -2.043190   -1.025450    1.272647
     15          6           0        1.970486   -0.721576    0.673613
     16          1           0        2.228419   -1.765060    0.442005
     17          1           0        2.904362   -0.158914    0.807713
     18          1           0        1.406436   -0.710772    1.617570
 ---------------------------------------------------------------------
 Rotational constants (GHZ):      4.6875618      2.1430553      1.8346762
 Standard basis: CC-pVDZ (5D, 7F)
 There are   153 symmetry adapted basis functions of A   symmetry.
 Integral buffers will be    131072 words long.
 Raffenetti 2 integral format.
 Two-electron integral symmetry is turned on.
   153 basis functions,   308 primitive gaussians,   160 cartesian basis functions
    28 alpha electrons       28 beta electrons
       nuclear repulsion energy       338.5218758519 Hartrees.
 NAtoms=   18 NActive=   18 NUniq=   18 SFac= 1.00D+00 NAtFMM=   60 NAOKFM=F Big=F
 One-electron integrals computed using PRISM.
 NBasis=   153 RedAO= T  NBF=   153
 NBsUse=   153 1.00D-06 NBFU=   153
 Initial guess read from the read-write file.
 B after Tr=     0.000000    0.000000    0.000000
         Rot=    1.000000    0.000000    0.000000    0.000000 Ang=   0.00 deg.
 Initial guess orbital symmetries:
       Occupied  (A) (A) (A) (A) (A) (A) (A) (A) (A) (A) (A) (A)
                 (A) (A) (A) (A) (A) (A) (A) (A) (A) (A) (A) (A)
                 (A) (A) (A) (A)
       Virtual   (A) (A) (A) (A) (A) (A) (A) (A) (A) (A) (A) (A)
                 (A) (A) (A) (A) (A) (A) (A) (A) (A) (A) (A) (A)
                 (A) (A) (A) (A) (A) (A) (A) (A) (A) (A) (A) (A)
                 (A) (A) (A) (A) (A) (A) (A) (A) (A) (A) (A) (A)
                 (A) (A) (A) (A) (A) (A) (A) (A) (A) (A) (A) (A)
                 (A) (A) (A) (A) (A) (A) (A) (A) (A) (A) (A) (A)
                 (A) (A) (A) (A) (A) (A) (A) (A) (A) (A) (A) (A)
                 (A) (A) (A) (A) (A) (A) (A) (A) (A) (A) (A) (A)
                 (A) (A) (A) (A) (A) (A) (A) (A) (A) (A) (A) (A)
                 (A) (A) (A) (A) (A) (A) (A) (A) (A) (A) (A) (A)
                 (A) (A) (A) (A) (A)
 Harris functional with IExCor= 1009 diagonalized for initial guess.
 ExpMin= 1.22D-01 ExpMax= 1.17D+04 ExpMxC= 4.01D+02 IAcc=3 IRadAn=         5 AccDes= 0.00D+00
 HarFok:  IExCor= 1009 AccDes= 0.00D+00 IRadAn=         5 IDoV= 1
 ScaDFX=  1.000000  1.000000  1.000000  1.000000
 FoFCou: FMM=F IPFlag=           0 FMFlag=      100000 FMFlg1=           0
         NFxFlg=           0 DoJE=T BraDBF=F KetDBF=T FulRan=T
         Omega=  0.000000  0.000000  1.000000  0.000000  0.000000 ICntrl=     500 IOpCl=  0
         NMat0=    1 NMatS0=    1 NMatT0=    0 NMatD0=    1 NMtDS0=    0 NMtDT0=    0
         I1Cent=           4 NGrid=           0.
 Petite list used in FoFCou.
 Requested convergence on RMS density matrix=1.00D-08 within 128 cycles.
 Requested convergence on MAX density matrix=1.00D-06.
 Requested convergence on             energy=1.00D-06.
 No special actions if energy rises.
 Keep R1 ints in memory in canonical form, NReq=85546939.
 Integral accuracy reduced to 1.0D-05 until final iterations.
 Initial convergence to 1.0D-05 achieved.  Increase integral accuracy.
 SCF Done:  E(RM06) =  -326.888590311     A.U. after   12 cycles
             Convg  =    0.3728D-08             -V/T =  2.0067
 Calling FoFJK, ICntrl=      2127 FMM=F ISym2X=0 I1Cent= 0 IOpClX= 0 NMat=1 NMatS=1 NMatT=0.
 ***** Axes restored to original set *****
 -------------------------------------------------------------------
 Center     Atomic                   Forces (Hartrees/Bohr)
 Number     Number              X              Y              Z
 -------------------------------------------------------------------
      1        6          -0.004444820   -0.000454311    0.007169189
      2        6           0.000457833   -0.003958837   -0.004579577
      3        6          -0.000417078    0.004535863   -0.000638038
      4        1           0.001129771    0.001200434   -0.007005566
      5        1           0.002095325    0.002316100    0.003759985
      6        1           0.000985604   -0.001046827   -0.004479607
      7        1           0.002251487    0.004457199   -0.002678058
      8        8          -0.002307086    0.009010202    0.012865442
      9        7          -0.001897830   -0.015056257   -0.004930372
     10        1           0.004586146    0.003919102    0.003980679
     11        6          -0.000191364   -0.009198638   -0.003189399
     12        1           0.001219601    0.002128817    0.000670510
     13        1          -0.001303640    0.001572031    0.000118230
     14        1           0.000102034    0.000059729    0.002751872
     15        6          -0.001544988    0.002405849   -0.006687514
     16        1          -0.001788456   -0.001059504    0.001986318
     17        1           0.000349954   -0.001568736    0.000590323
     18        1           0.000717508    0.000737785    0.000295583
 -------------------------------------------------------------------
 Cartesian Forces:  Max     0.015056257 RMS     0.004295716

 GradGradGradGradGradGradGradGradGradGradGradGradGradGradGradGradGradGrad
 Berny optimization.
 Using GEDIIS/GDIIS optimizer.
 Internal  Forces:  Max     0.007518621 RMS     0.002298901
 Search for a local minimum.
 Step number   3 out of a maximum of  107
 All quantities printed in internal units (Hartrees-Bohrs-Radians)
 Mixed Optimization -- RFO/linear search
 Update second derivatives using D2CorX and points    2    3
 DE= -1.59D-02 DEPred=-1.57D-02 R= 1.01D+00
 SS=  1.41D+00  RLast= 5.79D-01 DXNew= 5.0454D-01 1.7358D+00
 Trust test= 1.01D+00 RLast= 5.79D-01 DXMaxT set to 5.05D-01
 ITU=  1  0  0
 Use linear search instead of GDIIS.
     Eigenvalues ---    0.00237   0.00238   0.00795   0.01784   0.02967
     Eigenvalues ---    0.03533   0.04242   0.04805   0.04891   0.05329
     Eigenvalues ---    0.05524   0.05570   0.05733   0.05853   0.06827
     Eigenvalues ---    0.07368   0.07792   0.08329   0.10392   0.10936
     Eigenvalues ---    0.14477   0.15722   0.16000   0.16000   0.16000
     Eigenvalues ---    0.16002   0.16168   0.17266   0.19480   0.23345
     Eigenvalues ---    0.28184   0.28807   0.30774   0.32542   0.33825
     Eigenvalues ---    0.35042   0.36474   0.37230   0.37230   0.37230
     Eigenvalues ---    0.37230   0.37230   0.37230   0.37230   0.37292
     Eigenvalues ---    0.37737   0.47481   0.61453
 RFO step:  Lambda=-5.17436560D-03 EMin= 2.36798689D-03
 Quartic linear search produced a step of  0.34028.
 Iteration  1 RMS(Cart)=  0.04679002 RMS(Int)=  0.00198734
 Iteration  2 RMS(Cart)=  0.00227563 RMS(Int)=  0.00049869
 Iteration  3 RMS(Cart)=  0.00000378 RMS(Int)=  0.00049868
 Iteration  4 RMS(Cart)=  0.00000000 RMS(Int)=  0.00049868
 Variable       Old X    -DE/DX   Delta X   Delta X   Delta X     New X
                                 (Linear)    (Quad)   (Total)
    R1        2.07836   0.00364   0.00996   0.00574   0.01571   2.09406
    R2        2.67933  -0.00078  -0.02218   0.00069  -0.02203   2.65730
    R3        2.80503  -0.00747  -0.00758  -0.02529  -0.03296   2.77207
    R4        2.88765  -0.00332  -0.01937  -0.01202  -0.03140   2.85626
    R5        2.86160  -0.00030   0.00604  -0.00403   0.00235   2.86394
    R6        2.08811   0.00325   0.02330   0.00298   0.02628   2.11439
    R7        2.07241   0.00209   0.00755   0.00112   0.00867   2.08108
    R8        2.69978  -0.00599  -0.01385  -0.01820  -0.03229   2.66749
    R9        2.08505   0.00402   0.01059   0.00628   0.01687   2.10192
   R10        2.75958   0.00459  -0.00998   0.01877   0.00929   2.76887
   R11        2.86279  -0.00418  -0.00987  -0.01271  -0.02258   2.84021
   R12        1.92387   0.00143   0.00554  -0.00009   0.00545   1.92932
   R13        2.07461   0.00204   0.00855   0.00067   0.00922   2.08383
   R14        2.07412   0.00192   0.00859   0.00031   0.00890   2.08302
   R15        2.08010   0.00262   0.00946   0.00200   0.01146   2.09156
   R16        2.07787   0.00227   0.00887   0.00107   0.00994   2.08781
   R17        2.07586   0.00150   0.00858  -0.00135   0.00723   2.08309
   R18        2.07812   0.00089   0.01903  -0.00396   0.01507   2.09319
    A1        1.88033   0.00036  -0.03124   0.00224  -0.02839   1.85194
    A2        1.94744  -0.00029  -0.00499   0.00025  -0.00519   1.94225
    A3        1.86075   0.00077   0.01962   0.04234   0.06140   1.92215
    A4        1.85254  -0.00367   0.02142  -0.02873  -0.00878   1.84376
    A5        1.95816   0.00080  -0.00885  -0.01062  -0.01891   1.93924
    A6        1.96435   0.00200   0.00176  -0.00576  -0.00408   1.96027
    A7        1.93577  -0.00025  -0.00564  -0.00621  -0.01190   1.92387
    A8        2.01767   0.00124   0.00720  -0.00129   0.00678   2.02446
    A9        1.77786  -0.00380   0.02496  -0.02024   0.00361   1.78147
   A10        1.88534   0.00004   0.00589   0.00785   0.01340   1.89873
   A11        1.91305   0.00133  -0.00820   0.02762   0.01977   1.93282
   A12        1.93141   0.00139  -0.02490  -0.00698  -0.03184   1.89957
   A13        1.85163   0.00074   0.00313   0.02229   0.02548   1.87711
   A14        1.78497  -0.00018  -0.00825  -0.00085  -0.01054   1.77442
   A15        2.04504  -0.00134   0.00591  -0.03140  -0.02597   2.01908
   A16        1.85485  -0.00027  -0.00107   0.03939   0.03854   1.89339
   A17        1.90999   0.00018   0.00176   0.00128   0.00330   1.91329
   A18        2.00188   0.00092  -0.00192  -0.02148  -0.02385   1.97803
   A19        1.77721   0.00752   0.00121   0.05411   0.05273   1.82994
   A20        1.83718   0.00198   0.00321   0.02187   0.02387   1.86105
[...]
 ! D25   D(8,2,3,7)            -89.7747         -DE/DX =    0.0                 !
 ! D26   D(8,2,3,9)             23.5677         -DE/DX =    0.0                 !
 ! D27   D(8,2,3,11)           146.7757         -DE/DX =    0.0                 !
 ! D28   D(3,2,8,1)             -1.8531         -DE/DX =    0.0                 !
 ! D29   D(5,2,8,1)            117.2635         -DE/DX =    0.0                 !
 ! D30   D(6,2,8,1)           -124.0541         -DE/DX =    0.0                 !
 ! D31   D(2,3,9,1)            -35.5085         -DE/DX =    0.0                 !
 ! D32   D(2,3,9,10)            77.4886         -DE/DX =    0.0                 !
 ! D33   D(7,3,9,1)             79.2353         -DE/DX =    0.0                 !
 ! D34   D(7,3,9,10)          -167.7675         -DE/DX =    0.0                 !
 ! D35   D(11,3,9,1)          -159.984          -DE/DX =    0.0                 !
 ! D36   D(11,3,9,10)          -46.9868         -DE/DX =    0.0                 !
 ! D37   D(2,3,11,12)           61.5732         -DE/DX =    0.0                 !
 ! D38   D(2,3,11,13)         -177.8344         -DE/DX =    0.0                 !
 ! D39   D(2,3,11,14)          -57.7497         -DE/DX =    0.0                 !
 ! D40   D(7,3,11,12)          -61.4177         -DE/DX =    0.0                 !
 ! D41   D(7,3,11,13)           59.1748         -DE/DX =    0.0                 !
 ! D42   D(7,3,11,14)          179.2594         -DE/DX =    0.0                 !
 ! D43   D(9,3,11,12)          179.4062         -DE/DX =    0.0                 !
 ! D44   D(9,3,11,13)          -60.0014         -DE/DX =    0.0                 !
 ! D45   D(9,3,11,14)           60.0833         -DE/DX =    0.0                 !
 --------------------------------------------------------------------------------
 GradGradGradGradGradGradGradGradGradGradGradGradGradGradGradGradGradGrad

                          Input orientation:                          
 ---------------------------------------------------------------------
 Center     Atomic      Atomic             Coordinates (Angstroms)
 Number     Number       Type             X           Y           Z
 ---------------------------------------------------------------------
      1          6           0        1.056985    0.730065    0.175566
      2          6           0        2.941651    2.046843    0.233998
      3          6           0        1.682253    2.900554    0.028249
      4          1           0        0.792939    0.578703   -0.894037
      5          1           0        3.441510    2.313004    1.188991
      6          1           0        3.681216    2.174094   -0.577939
      7          1           0        1.499984    3.014409   -1.058364
      8          8           0        2.486267    0.712400    0.289398
      9          7           0        0.613685    2.049353    0.553151
     10          1           0        0.649167    2.104007    1.578016
     11          6           0        1.724794    4.258286    0.682419
     12          1           0        2.543977    4.871448    0.275229
     13          1           0        0.780415    4.801945    0.529757
     14          1           0        1.892940    4.158912    1.769792
     15          6           0        0.478653   -0.369055    1.020857
     16          1           0       -0.617461   -0.391814    0.932534
     17          1           0        0.880592   -1.343458    0.708932
     18          1           0        0.753504   -0.212956    2.077578
 ---------------------------------------------------------------------
                    Distance matrix (angstroms):
                    1          2          3          4          5
     1  C    0.000000
     2  C    2.299844   0.000000
     3  C    2.263556   1.535330   0.000000
     4  H    1.112062   2.836346   2.651883   0.000000
     5  H    3.036229   1.110276   2.188041   3.789688   0.000000
     6  H    3.088620   1.105618   2.211574   3.314714   1.788518
     7  H    2.633829   2.164437   1.107661   2.541570   3.051573
     8  O    1.433916   1.411093   2.345774   2.070206   2.069708
     9  N    1.442084   2.349742   1.463524   2.071063   2.910395
    10  H    2.005218   2.658031   2.025717   2.908311   2.827047
    11  C    3.626459   2.563649   1.507708   4.110097   2.643454
    12  H    4.401378   2.852759   2.165176   4.781315   2.861147
    13  H    4.096602   3.514115   2.163356   4.456806   3.702816
    14  H    3.872643   2.814123   2.158894   4.596072   2.478462
    15  C    1.502348   3.538654   3.622743   2.159593   4.000029
    16  H    2.152994   4.370615   4.116565   2.503497   4.884369
    17  H    2.148277   3.995956   4.372371   2.504375   4.489818
    18  H    2.144537   3.646020   3.841389   3.075513   3.794131
                    6          7          8          9         10
     6  H    0.000000
     7  H    2.386359   0.000000
     8  O    2.077673   2.844022   0.000000
     9  N    3.271799   2.076979   2.315939   0.000000
    10  H    3.721071   2.916028   2.640462   1.026934   0.000000
    11  C    3.124091   2.151301   3.647960   2.476016   2.569043
    12  H    3.049086   2.513361   4.159472   3.430377   3.598094
    13  H    4.067830   2.497037   4.437577   2.757736   2.897403
    14  H    3.556582   3.076161   3.797637   2.750808   2.409643
    15  C    4.390918   4.100500   2.394805   2.466917   2.540775
    16  H    5.229152   4.477679   3.356492   2.760245   2.872302
    17  H    4.676826   4.743204   2.642111   3.406857   3.562847
    18  H    4.617496   4.561496   2.656377   2.731569   2.372502
                   11         12         13         14         15
    11  C    0.000000
    12  H    1.101286   0.000000
    13  H    1.100330   1.783190   0.000000
    14  H    1.104774   1.779122   1.785747   0.000000
    15  C    4.804132   5.681936   5.203027   4.802457   0.000000
    16  H    5.212691   6.174841   5.393647   5.264239   1.099902
    17  H    5.665060   6.448255   6.148831   5.694413   1.099233
    18  H    4.783500   5.683785   5.248401   4.528385   1.102983
                   16         17         18
    16  H    0.000000
    17  H    1.788795   0.000000
    18  H    1.795178   1.779713   0.000000
 Stoichiometry    C5H11NO
 Framework group  C1[X(C5H11NO)]
 Deg. of freedom    48
 Full point group                 C1      NOp   1
 Largest Abelian subgroup         C1      NOp   1
 Largest concise Abelian subgroup C1      NOp   1
                         Standard orientation:                         
 ---------------------------------------------------------------------
 Center     Atomic      Atomic             Coordinates (Angstroms)
 Number     Number       Type             X           Y           Z
 ---------------------------------------------------------------------
      1          6           0        1.125107   -0.113355   -0.396418
      2          6           0       -0.644522    1.255375    0.136757
      3          6           0       -1.138398   -0.099067   -0.391270
      4          1           0        1.271471   -0.050257   -1.496999
      5          1           0       -0.972322    1.407737    1.186540
      6          1           0       -1.019653    2.108298   -0.458383
      7          1           0       -1.270001   -0.029483   -1.488882
      8          8           0        0.763943    1.189494    0.081350
      9          7           0        0.002115   -0.984891   -0.153684
     10          1           0        0.007382   -1.222101    0.845465
     11          6           0       -2.411225   -0.599260    0.243474
     12          1           0       -3.248042    0.091954    0.056948
     13          1           0       -2.688745   -1.588521   -0.150316
     14          1           0       -2.289672   -0.686158    1.338097
     15          6           0        2.392578   -0.555157    0.278398
     16          1           0        2.704366   -1.543976   -0.088768
     17          1           0        3.199722    0.165919    0.086356
     18          1           0        2.237902   -0.606339    1.369282
 ---------------------------------------------------------------------
 Rotational constants (GHZ):      5.3926778      2.0112151      1.6203343

 **********************************************************************

            Population analysis using the SCF density.

 **********************************************************************

 Orbital symmetries:
       Occupied  (A) (A) (A) (A) (A) (A) (A) (A) (A) (A) (A) (A)
                 (A) (A) (A) (A) (A) (A) (A) (A) (A) (A) (A) (A)
                 (A) (A) (A) (A)
       Virtual   (A) (A) (A) (A) (A) (A) (A) (A) (A) (A) (A) (A)
                 (A) (A) (A) (A) (A) (A) (A) (A) (A) (A) (A) (A)
                 (A) (A) (A) (A) (A) (A) (A) (A) (A) (A) (A) (A)
                 (A) (A) (A) (A) (A) (A) (A) (A) (A) (A) (A) (A)
                 (A) (A) (A) (A) (A) (A) (A) (A) (A) (A) (A) (A)
                 (A) (A) (A) (A) (A) (A) (A) (A) (A) (A) (A) (A)
                 (A) (A) (A) (A) (A) (A) (A) (A) (A) (A) (A) (A)
                 (A) (A) (A) (A) (A) (A) (A) (A) (A) (A) (A) (A)
                 (A) (A) (A) (A) (A) (A) (A) (A) (A) (A) (A) (A)
                 (A) (A) (A) (A) (A) (A) (A) (A) (A) (A) (A) (A)
                 (A) (A) (A) (A) (A)
 The electronic state is 1-A.
 Alpha  occ. eigenvalues --  -19.21317 -14.39083 -10.31832 -10.28989 -10.28165
 Alpha  occ. eigenvalues --  -10.25237 -10.24407  -1.06956  -0.91676  -0.79975
 Alpha  occ. eigenvalues --   -0.73309  -0.68025  -0.62116  -0.58465  -0.52228
 Alpha  occ. eigenvalues --   -0.49180  -0.47430  -0.45050  -0.43397  -0.41253
 Alpha  occ. eigenvalues --   -0.40369  -0.39005  -0.37771  -0.35917  -0.35475
 Alpha  occ. eigenvalues --   -0.32599  -0.26579  -0.25889
 Alpha virt. eigenvalues --    0.06349   0.07637   0.08562   0.11404   0.11910
 Alpha virt. eigenvalues --    0.12415   0.13112   0.13298   0.14194   0.14611
 Alpha virt. eigenvalues --    0.16477   0.17528   0.19256   0.24082   0.25330
 Alpha virt. eigenvalues --    0.26805   0.27350   0.29725   0.41320   0.42137
 Alpha virt. eigenvalues --    0.42670   0.44054   0.47330   0.50663   0.51250
 Alpha virt. eigenvalues --    0.52583   0.53607   0.55281   0.57037   0.58630
 Alpha virt. eigenvalues --    0.59827   0.60454   0.61371   0.62055   0.62401
 Alpha virt. eigenvalues --    0.62648   0.63005   0.64140   0.64964   0.65782
 Alpha virt. eigenvalues --    0.67032   0.69671   0.74738   0.77019   0.82858
 Alpha virt. eigenvalues --    0.85365   0.86359   0.89049   0.91916   0.94580
 Alpha virt. eigenvalues --    1.03552   1.08814   1.11604   1.12749   1.18208
 Alpha virt. eigenvalues --    1.18771   1.24010   1.25308   1.30270   1.33407
 Alpha virt. eigenvalues --    1.34881   1.35847   1.40063   1.40187   1.42349
 Alpha virt. eigenvalues --    1.47790   1.48803   1.51064   1.53077   1.55487
 Alpha virt. eigenvalues --    1.56448   1.57199   1.59666   1.60507   1.62427
 Alpha virt. eigenvalues --    1.63446   1.64257   1.65343   1.67346   1.68392
 Alpha virt. eigenvalues --    1.69526   1.73197   1.74184   1.77861   1.78336
 Alpha virt. eigenvalues --    1.80194   1.83292   1.84227   1.85627   1.89744
 Alpha virt. eigenvalues --    1.91158   1.93814   1.99155   1.99726   2.01795
 Alpha virt. eigenvalues --    2.05521   2.08365   2.10041   2.16038   2.16356
 Alpha virt. eigenvalues --    2.19919   2.24408   2.25114   2.26272   2.29881
 Alpha virt. eigenvalues --    2.35809   2.37883   2.39177   2.40162   2.40986
 Alpha virt. eigenvalues --    2.43450   2.44535   2.46005   2.49131   2.53608
 Alpha virt. eigenvalues --    2.62972   2.64865   2.68163   2.70097   2.96406
 Alpha virt. eigenvalues --    3.02753   3.06369   3.08139   3.23167   3.33633
          Condensed to atoms (all electrons):
              1          2          3          4          5          6
     1  C    4.636141  -0.109779  -0.077193   0.372562   0.005064   0.003140
     2  C   -0.109779   4.601955   0.408618  -0.006166   0.363432   0.354310
     3  C   -0.077193   0.408618   4.814637  -0.003376  -0.027741  -0.007265
     4  H    0.372562  -0.006166  -0.003376   0.737878  -0.001466   0.003693
     5  H    0.005064   0.363432  -0.027741  -0.001466   0.727077  -0.060047
     6  H    0.003140   0.354310  -0.007265   0.003693  -0.060047   0.708786
     7  H    0.003168  -0.049010   0.364739   0.003235   0.010064  -0.013337
     8  O    0.310465   0.367824  -0.046456  -0.046249  -0.034393  -0.027997
     9  N    0.398420  -0.078967   0.388647  -0.048769   0.000616   0.005038
    10  H   -0.032953  -0.000938  -0.048472   0.011231   0.001058   0.000158
    11  C    0.006738  -0.043891   0.423605   0.000392  -0.007126   0.002052
    12  H   -0.000289  -0.002312  -0.015338   0.000063  -0.002324   0.002375
    13  H   -0.000234   0.008118  -0.008696  -0.000150   0.000121  -0.000581
    14  H    0.000518  -0.013286  -0.021659  -0.000012   0.009497  -0.000463
    15  C    0.418974   0.004619   0.008794  -0.049049   0.000697  -0.000873
    16  H   -0.013713  -0.000115  -0.000235  -0.002765  -0.000061   0.000040
    17  H   -0.010169  -0.000017  -0.000262  -0.008061   0.000104  -0.000092
    18  H   -0.016091  -0.000188   0.000069   0.010636  -0.000531   0.000117
              7          8          9         10         11         12
     1  C    0.003168   0.310465   0.398420  -0.032953   0.006738  -0.000289
     2  C   -0.049010   0.367824  -0.078967  -0.000938  -0.043891  -0.002312
     3  C    0.364739  -0.046456   0.388647  -0.048472   0.423605  -0.015338
     4  H    0.003235  -0.046249  -0.048769   0.011231   0.000392   0.000063
     5  H    0.010064  -0.034393   0.000616   0.001058  -0.007126  -0.002324
     6  H   -0.013337  -0.027997   0.005038   0.000158   0.002052   0.002375
     7  H    0.717034  -0.001068  -0.040570   0.010037  -0.029957  -0.006640
     8  O   -0.001068   7.937991  -0.070252   0.001753   0.003719   0.000062
     9  N   -0.040570  -0.070252   6.373812   0.340968  -0.035926   0.004507
    10  H    0.010037   0.001753   0.340968   0.631044  -0.006587   0.000055
    11  C   -0.029957   0.003719  -0.035926  -0.006587   4.580482   0.382655
    12  H   -0.006640   0.000062   0.004507   0.000055   0.382655   0.639533
    13  H   -0.009961  -0.000118   0.001065  -0.001643   0.376993  -0.024294
    14  H    0.009845  -0.000016  -0.005936   0.007805   0.381167  -0.028775
    15  C    0.000335  -0.036037  -0.025855  -0.013046  -0.000427   0.000006
    16  H   -0.000153   0.004252   0.000833  -0.000818   0.000004   0.000001
    17  H    0.000040   0.000675   0.004923  -0.000181   0.000008  -0.000001
    18  H    0.000020   0.002241  -0.008393   0.009494  -0.000001   0.000004
             13         14         15         16         17         18
     1  C   -0.000234   0.000518   0.418974  -0.013713  -0.010169  -0.016091
     2  C    0.008118  -0.013286   0.004619  -0.000115  -0.000017  -0.000188
     3  C   -0.008696  -0.021659   0.008794  -0.000235  -0.000262   0.000069
     4  H   -0.000150  -0.000012  -0.049049  -0.002765  -0.008061   0.010636
     5  H    0.000121   0.009497   0.000697  -0.000061   0.000104  -0.000531
     6  H   -0.000581  -0.000463  -0.000873   0.000040  -0.000092   0.000117
     7  H   -0.009961   0.009845   0.000335  -0.000153   0.000040   0.000020
     8  O   -0.000118  -0.000016  -0.036037   0.004252   0.000675   0.002241
     9  N    0.001065  -0.005936  -0.025855   0.000833   0.004923  -0.008393
    10  H   -0.001643   0.007805  -0.013046  -0.000818  -0.000181   0.009494
    11  C    0.376993   0.381167  -0.000427   0.000004   0.000008  -0.000001
    12  H   -0.024294  -0.028775   0.000006   0.000001  -0.000001   0.000004
    13  H    0.634695  -0.032402   0.000038   0.000009   0.000001  -0.000010
    14  H   -0.032402   0.657914  -0.000016  -0.000012   0.000002  -0.000033
    15  C    0.000038  -0.000016   4.602706   0.370227   0.381327   0.367984
    16  H    0.000009  -0.000012   0.370227   0.640203  -0.023571  -0.025989
    17  H    0.000001   0.000002   0.381327  -0.023571   0.624770  -0.027438
    18  H   -0.000010  -0.000033   0.367984  -0.025989  -0.027438   0.651756
 Mulliken atomic charges:
              1
     1  C    0.105231
     2  C    0.195793
     3  C   -0.152417
     4  H    0.026371
     5  H    0.015957
     6  H    0.030945
     7  H    0.032177
     8  O   -0.366398
     9  N   -0.204163
    10  H    0.091035
    11  C   -0.033903
    12  H    0.050710
    13  H    0.057047
    14  H    0.035861
    15  C   -0.030404
    16  H    0.051862
    17  H    0.057941
    18  H    0.036353
 Sum of Mulliken atomic charges =   0.00000
 Mulliken charges with hydrogens summed into heavy atoms:
              1
     1  C    0.131602
     2  C    0.242695
     3  C   -0.120240
     8  O   -0.366398
     9  N   -0.113128
    11  C    0.109716
    15  C    0.115753
 Sum of Mulliken charges with hydrogens summed into heavy atoms =   0.00000
 Electronic spatial extent (au):  <R**2>=            817.0047
 Charge=              0.0000 electrons
 Dipole moment (field-independent basis, Debye):
    X=             -0.9802    Y=             -0.4958    Z=              0.4100  Tot=              1.1725
 Quadrupole moment (field-independent basis, Debye-Ang):
   XX=            -41.0105   YY=            -47.3097   ZZ=            -42.8329
   XY=             -2.4536   XZ=             -0.3033   YZ=             -1.9761
 Traceless Quadrupole moment (field-independent basis, Debye-Ang):
   XX=              2.7072   YY=             -3.5920   ZZ=              0.8848
   XY=             -2.4536   XZ=             -0.3033   YZ=             -1.9761
 Octapole moment (field-independent basis, Debye-Ang**2):
  XXX=              4.8475  YYY=              3.5626  ZZZ=              0.9827  XYY=             -2.8054
  XXY=             -0.8800  XXZ=             -1.9658  XZZ=              0.8777  YZZ=              0.4223
  YYZ=              1.7264  XYZ=             -0.2261
 Hexadecapole moment (field-independent basis, Debye-Ang**3):
 XXXX=           -716.4110 YYYY=           -255.7642 ZZZZ=           -101.5260 XXXY=              2.8998
 XXXZ=              0.6132 YYYX=             -2.4739 YYYZ=             -3.7882 ZZZX=              0.3572
 ZZZY=             -1.8695 XXYY=           -161.8701 XXZZ=           -140.9917 YYZZ=            -59.4187
 XXYZ=              0.9722 YYXZ=              0.3851 ZZXY=              0.7379
 N-N= 3.362023614814D+02 E-N=-1.433806140883D+03  KE= 3.247166767930D+02
 1|1|UNPC-ALAUNDO|FOpt|RM06|CC-pVDZ|C5H11N1O1|KUPROV|25-Jul-2014|0||# o
 pt=tight m06/cc-pVDZ scf=tight integral=(grid=ultrafine)||Cis-isomer o
 f dimethyloxazolidine||0,1|C,1.0569849211,0.73006549,0.175565852|C,2.9
 416507773,2.0468432647,0.2339984308|C,1.68225294,2.9005543247,0.028249
 2665|H,0.7929394746,0.5787030092,-0.894037427|H,3.4415099192,2.3130038
 694,1.1889911853|H,3.6812156518,2.174093636,-0.5779391668|H,1.49998449
 53,3.0144089148,-1.058364023|O,2.4862667059,0.7123998878,0.2893982021|
 N,0.6136850715,2.049353373,0.5531513321|H,0.6491674352,2.1040071608,1.
 5780161302|C,1.7247944965,4.2582855098,0.6824192922|H,2.5439767515,4.8
 714478408,0.275229236|H,0.7804147949,4.8019454949,0.5297565608|H,1.892
 9395904,4.1589116933,1.7697917003|C,0.4786528335,-0.3690549279,1.02085
 65593|H,-0.6174613422,-0.3918138517,0.9325342028|H,0.880591742,-1.3434
 576509,0.7089321501|H,0.7535043415,-0.2129556789,2.0775783364||Version
 =EM64W-G09RevC.01|State=1-A|HF=-326.8993353|RMSD=4.856e-009|RMSF=8.090
 e-007|Dipole=-0.035467,0.4236269,0.1790676|Quadrupole=-1.8661015,0.671
 0562,1.1950452,2.8667546,-0.6577136,-0.1167598|PG=C01 [X(C5H11N1O1)]||
 @


 IT'S WHAT A FELLER THINKS HE KNOWS THAT HURTS HIM...
                    ------
           KIN HUBBARD
 Job cpu time:  0 days  0 hours 29 minutes 39.0 seconds.
 File lengths (MBytes):  RWF=     20 Int=      0 D2E=      0 Chk=      3 Scr=      1
 Normal termination of Gaussian 09 at Fri Jul 25 16:58:51 2014.
