 Entering Link 1 = C:\G09W\l1.exe PID=      3564.
  
 Copyright (c) 1988,1990,1992,1993,1995,1998,2003,2009,2011,
            Gaussian, Inc.  All Rights Reserved.
  
 This is part of the Gaussian(R) 09 program.  It is based on
 the Gaussian(R) 03 system (copyright 2003, Gaussian, Inc.),
 the Gaussian(R) 98 system (copyright 1998, Gaussian, Inc.),
 the Gaussian(R) 94 system (copyright 1995, Gaussian, Inc.),
 the Gaussian 92(TM) system (copyright 1992, Gaussian, Inc.),
 the Gaussian 90(TM) system (copyright 1990, Gaussian, Inc.),
 the Gaussian 88(TM) system (copyright 1988, Gaussian, Inc.),
 the Gaussian 86(TM) system (copyright 1986, Carnegie Mellon
 University), and the Gaussian 82(TM) system (copyright 1983,
 Carnegie Mellon University). Gaussian is a federally registered
 trademark of Gaussian, Inc.
  
 This software contains proprietary and confidential information,
 including trade secrets, belonging to Gaussian, Inc.
  
 This software is provided under written license and may be
 used, copied, transmitted, or stored only in accord with that
 written license.
  
 The following legend is applicable only to US Government
 contracts under FAR:
  
                    RESTRICTED RIGHTS LEGEND
  
 Use, reproduction and disclosure by the US Government is
 subject to restrictions as set forth in subparagraphs (a)
 and (c) of the Commercial Computer Software - Restricted
 Rights clause in FAR 52.227-19.
  
 Gaussian, Inc.
 340 Quinnipiac St., Bldg. 40, Wallingford CT 06492
  
  
 ---------------------------------------------------------------
 Warning -- This program may not be used in any manner that
 competes with the business of Gaussian, Inc. or will provide
 assistance to any competitor of Gaussian, Inc.  The licensee
 of this program is prohibited from giving any competitor of
 Gaussian, Inc. access to this program.  By using this program,
 the user acknowledges that Gaussian, Inc. is engaged in the
 business of creating and licensing software in the field of
 computational chemistry and represents and warrants to the
 licensee that it is not a competitor of Gaussian, Inc. and that
 it will not use this program in any manner prohibited above.
 ---------------------------------------------------------------
  

 Cite this work as:
 Gaussian 09, Revision C.01,
 M. J. Frisch, G. W. Trucks, H. B. Schlegel, G. E. Scuseria, 
 M. A. Robb, J. R. Cheeseman, G. Scalmani, V. Barone, B. Mennucci, 
 G. A. Petersson, H. Nakatsuji, M. Caricato, X. Li, H. P. Hratchian, 
 A. F. Izmaylov, J. Bloino, G. Zheng, J. L. Sonnenberg, M. Hada, 
 M. Ehara, K. Toyota, R. Fukuda, J. Hasegawa, M. Ishida, T. Nakajima, 
 Y. Honda, O. Kitao, H. Nakai, T. Vreven, J. A. Montgomery, Jr., 
 J. E. Peralta, F. Ogliaro, M. Bearpark, J. J. Heyd, E. Brothers, 
 K. N. Kudin, V. N. Staroverov, T. Keith, R. Kobayashi, J. Normand, 
 K. Raghavachari, A. Rendell, J. C. Burant, S. S. Iyengar, J. Tomasi, 
 M. Cossi, N. Rega, J. M. Millam, M. Klene, J. E. Knox, J. B. Cross, 
 V. Bakken, C. Adamo, J. Jaramillo, R. Gomperts, R. E. Stratmann, 
 O. Yazyev, A. J. Austin, R. Cammi, C. Pomelli, J. W. Ochterski, 
 R. L. Martin, K. Morokuma, V. G. Zakrzewski, G. A. Voth, 
 P. Salvador, J. J. Dannenberg, S. Dapprich, A. D. Daniels, 
 O. Farkas, J. B. Foresman, J. V. Ortiz, J. Cioslowski, 
 and D. J. Fox, Gaussian, Inc., Wallingford CT, 2010.
 
 ******************************************
 Gaussian 09:  EM64W-G09RevC.01 23-Sep-2011
                03-Dec-2013 
 ******************************************
 %chk=crystal_str.chk
 %nprocshared=12
 Will use up to   12 processors via shared memory.
 %mem=16GB
 ----------------------------------------------------------------------
 #p opt m06/cc-pvdz scrf=(iefpcm,solvent=chloroform) integral=(grid=ult
 rafine) scf=tight
 ----------------------------------------------------------------------
 1/14=-1,18=20,19=15,26=3,38=1/1,3;
 2/9=110,12=2,17=6,18=5,40=1/2;
 3/5=16,11=2,16=1,25=1,30=1,70=2201,71=1,72=7,74=-54,75=-5/1,2,3;
 4//1;
 5/5=2,32=2,38=5,53=7/2;
 6/7=2,8=2,9=2,10=2,28=1/1;
 7//1,2,3,16;
 1/14=-1,18=20,19=15/3(2);
 2/9=110/2;
 99//99;
 2/9=110/2;
 3/5=16,11=2,16=1,25=1,30=1,70=2205,71=1,72=7,74=-54,75=-5/1,2,3;
 4/5=5,16=3/1;
 5/5=2,32=2,38=5,53=7/2;
 7//1,2,3,16;
 1/14=-1,18=20,19=15/3(-5);
 2/9=110/2;
 6/7=2,8=2,9=2,10=2,19=2,28=1/1;
 99/9=1/99;
 Leave Link    1 at Tue Dec 03 15:48:26 2013, MaxMem= 2147483648 cpu:       0.0
 (Enter C:\G09W\l101.exe)
 ---------------------
 Geometry optimization
 ---------------------
 Charge =  1 Multiplicity = 1
 Symbolic Z-Matrix:
 H                     20.50122   9.16601   16.05604 
 C                     25.72012   9.08497   7.31894 
 H                     26.2776   8.88497   6.53745 
 H                     24.77841   9.10604   7.04979 
 C                     25.52036   6.65523   7.80532 
 H                     26.04203   6.47852   6.99514 
 H                     25.69373   5.95166   8.46522 
 H                     24.56571   6.66866   7.58399 
 C                     25.92482   8.00254   8.38461 
 C                     25.11461   8.33831   9.64838 
 H                     25.5563   9.13402   10.06371 
 C                     23.65587   8.74389   9.37786 
 H                     23.30909   8.20305   8.6237 
 H                     23.63566   9.69412   9.10052 
 C                     22.72493   8.56144   10.58425 
 H                     22.3567   7.64259   10.59108 
 H                     21.97069   9.20029   10.5296 
 C                     24.57936   7.72939   12.04066 
 H                     24.19531   6.96498   12.55847 
 F                     25.66021   8.3073    12.75794 
 C                     23.52489   8.80978   11.84802 
 H                     23.99898   9.68427   11.74419 
 C                     25.11299   7.23927   10.71404 
 H                     26.03626   6.90606   10.83837 
 H                     24.55643   6.48322   10.39981 
 C                     21.68553   7.97748   13.2894 
 H                     21.57912   7.2588    12.67733 
 N                     22.63336   8.91097   13.05714 
 C                     27.4165   7.9971    8.73846 
 H                     27.66611   8.86849   9.11145 
 H                     27.59336   7.29634   9.39972 
 H                     27.94406   7.82512   7.93102 
 H                     25.97496   9.95739   7.68646 
 C                     22.79815   9.93911   13.91241 
 C                     22.00195   10.04282   15.02863 
 H                     22.11877   10.77105   15.62704 
 C                     21.04566   9.10138   15.28001 
 C                     20.87577   8.04823   14.38786 
 H                     20.20794   7.38992   14.53951 
 H                     23.46566   10.59331   13.743 
 
 NAtoms=     40 NQM=        0 NQMF=       0 NMMI=     40 NMMIF=      0
                NMic=       0 NMicF=      0.
                    Isotopes and Nuclear Properties:
 (Nuclear quadrupole moments (NQMom) in fm**2, nuclear magnetic moments (NMagM)
  in nuclear magnetons)

  Atom         1           2           3           4           5           6           7           8           9          10
 IAtWgt=           1          12           1           1          12           1           1           1          12          12
 AtmWgt=   1.0078250  12.0000000   1.0078250   1.0078250  12.0000000   1.0078250   1.0078250   1.0078250  12.0000000  12.0000000
 NucSpn=           1           0           1           1           0           1           1           1           0           0
 AtZEff=   0.0000000   0.0000000   0.0000000   0.0000000   0.0000000   0.0000000   0.0000000   0.0000000   0.0000000   0.0000000
 NQMom=    0.0000000   0.0000000   0.0000000   0.0000000   0.0000000   0.0000000   0.0000000   0.0000000   0.0000000   0.0000000
 NMagM=    2.7928460   0.0000000   2.7928460   2.7928460   0.0000000   2.7928460   2.7928460   2.7928460   0.0000000   0.0000000

  Atom        11          12          13          14          15          16          17          18          19          20
 IAtWgt=           1          12           1           1          12           1           1          12           1          19
 AtmWgt=   1.0078250  12.0000000   1.0078250   1.0078250  12.0000000   1.0078250   1.0078250  12.0000000   1.0078250  18.9984033
 NucSpn=           1           0           1           1           0           1           1           0           1           1
 AtZEff=   0.0000000   0.0000000   0.0000000   0.0000000   0.0000000   0.0000000   0.0000000   0.0000000   0.0000000   0.0000000
 NQMom=    0.0000000   0.0000000   0.0000000   0.0000000   0.0000000   0.0000000   0.0000000   0.0000000   0.0000000   0.0000000
 NMagM=    2.7928460   0.0000000   2.7928460   2.7928460   0.0000000   2.7928460   2.7928460   0.0000000   2.7928460   2.6288670

  Atom        21          22          23          24          25          26          27          28          29          30
 IAtWgt=          12           1          12           1           1          12           1          14          12           1
 AtmWgt=  12.0000000   1.0078250  12.0000000   1.0078250   1.0078250  12.0000000   1.0078250  14.0030740  12.0000000   1.0078250
 NucSpn=           0           1           0           1           1           0           1           2           0           1
 AtZEff=   0.0000000   0.0000000   0.0000000   0.0000000   0.0000000   0.0000000   0.0000000   0.0000000   0.0000000   0.0000000
 NQMom=    0.0000000   0.0000000   0.0000000   0.0000000   0.0000000   0.0000000   0.0000000   2.0440000   0.0000000   0.0000000
 NMagM=    0.0000000   2.7928460   0.0000000   2.7928460   2.7928460   0.0000000   2.7928460   0.4037610   0.0000000   2.7928460

  Atom        31          32          33          34          35          36          37          38          39          40
 IAtWgt=           1           1           1          12          12           1          12          12           1           1
 AtmWgt=   1.0078250   1.0078250   1.0078250  12.0000000  12.0000000   1.0078250  12.0000000  12.0000000   1.0078250   1.0078250
 NucSpn=           1           1           1           0           0           1           0           0           1           1
 AtZEff=   0.0000000   0.0000000   0.0000000   0.0000000   0.0000000   0.0000000   0.0000000   0.0000000   0.0000000   0.0000000
 NQMom=    0.0000000   0.0000000   0.0000000   0.0000000   0.0000000   0.0000000   0.0000000   0.0000000   0.0000000   0.0000000
 NMagM=    2.7928460   2.7928460   2.7928460   0.0000000   0.0000000   2.7928460   0.0000000   0.0000000   2.7928460   2.7928460
 Leave Link  101 at Tue Dec 03 15:48:27 2013, MaxMem= 2147483648 cpu:       1.0
 (Enter C:\G09W\l103.exe)

 GradGradGradGradGradGradGradGradGradGradGradGradGradGradGradGradGradGrad
 Berny optimization.
 Initialization pass.
                           ----------------------------
                           !    Initial Parameters    !
                           ! (Angstroms and Degrees)  !
 --------------------------                            --------------------------
 ! Name  Definition              Value          Derivative Info.                !
 --------------------------------------------------------------------------------
 ! R1    R(1,37)                 0.9502         estimate D2E/DX2                !
 ! R2    R(2,3)                  0.9806         estimate D2E/DX2                !
 ! R3    R(2,4)                  0.9796         estimate D2E/DX2                !
 ! R4    R(2,9)                  1.5327         estimate D2E/DX2                !
 ! R5    R(2,33)                 0.9804         estimate D2E/DX2                !
 ! R6    R(5,6)                  0.9797         estimate D2E/DX2                !
 ! R7    R(5,7)                  0.9801         estimate D2E/DX2                !
 ! R8    R(5,8)                  0.9801         estimate D2E/DX2                !
 ! R9    R(5,9)                  1.5213         estimate D2E/DX2                !
 ! R10   R(9,10)                 1.5383         estimate D2E/DX2                !
 ! R11   R(9,29)                 1.5331         estimate D2E/DX2                !
 ! R12   R(10,11)                1.0004         estimate D2E/DX2                !
 ! R13   R(10,12)                1.538          estimate D2E/DX2                !
 ! R14   R(10,23)                1.5309         estimate D2E/DX2                !
 ! R15   R(12,13)                0.9907         estimate D2E/DX2                !
 ! R16   R(12,14)                0.9901         estimate D2E/DX2                !
 ! R17   R(12,15)                1.5347         estimate D2E/DX2                !
 ! R18   R(15,16)                0.9899         estimate D2E/DX2                !
 ! R19   R(15,17)                0.9899         estimate D2E/DX2                !
 ! R20   R(15,21)                1.5162         estimate D2E/DX2                !
 ! R21   R(18,19)                1.0            estimate D2E/DX2                !
 ! R22   R(18,20)                1.4201         estimate D2E/DX2                !
 ! R23   R(18,21)                1.5219         estimate D2E/DX2                !
 ! R24   R(18,23)                1.5116         estimate D2E/DX2                !
 ! R25   R(21,22)                1.0001         estimate D2E/DX2                !
 ! R26   R(21,28)                1.5057         estimate D2E/DX2                !
 ! R27   R(23,24)                0.9894         estimate D2E/DX2                !
 ! R28   R(23,25)                0.99           estimate D2E/DX2                !
 ! R29   R(26,27)                0.95           estimate D2E/DX2                !
 ! R30   R(26,28)                1.3505         estimate D2E/DX2                !
 ! R31   R(26,38)                1.3665         estimate D2E/DX2                !
 ! R32   R(28,34)                1.3475         estimate D2E/DX2                !
 ! R33   R(29,30)                0.9802         estimate D2E/DX2                !
 ! R34   R(29,31)                0.9796         estimate D2E/DX2                !
 ! R35   R(29,32)                0.9797         estimate D2E/DX2                !
 ! R36   R(34,35)                1.375          estimate D2E/DX2                !
 ! R37   R(34,40)                0.9499         estimate D2E/DX2                !
 ! R38   R(35,36)                0.9498         estimate D2E/DX2                !
 ! R39   R(35,37)                1.3653         estimate D2E/DX2                !
 ! R40   R(37,38)                1.3907         estimate D2E/DX2                !
 ! R41   R(38,39)                0.9499         estimate D2E/DX2                !
 ! A1    A(3,2,4)              109.3863         estimate D2E/DX2                !
 ! A2    A(3,2,9)              109.5211         estimate D2E/DX2                !
 ! A3    A(3,2,33)             109.4202         estimate D2E/DX2                !
 ! A4    A(4,2,9)              109.5478         estimate D2E/DX2                !
 ! A5    A(4,2,33)             109.4952         estimate D2E/DX2                !
 ! A6    A(9,2,33)             109.4567         estimate D2E/DX2                !
 ! A7    A(6,5,7)              109.4597         estimate D2E/DX2                !
 ! A8    A(6,5,8)              109.536          estimate D2E/DX2                !
 ! A9    A(6,5,9)              109.4555         estimate D2E/DX2                !
 ! A10   A(7,5,8)              109.5244         estimate D2E/DX2                !
 ! A11   A(7,5,9)              109.4117         estimate D2E/DX2                !
 ! A12   A(8,5,9)              109.44           estimate D2E/DX2                !
 ! A13   A(2,9,5)              108.9771         estimate D2E/DX2                !
 ! A14   A(2,9,10)             110.2867         estimate D2E/DX2                !
 ! A15   A(2,9,29)             107.0337         estimate D2E/DX2                !
 ! A16   A(5,9,10)             111.4759         estimate D2E/DX2                !
 ! A17   A(5,9,29)             110.0856         estimate D2E/DX2                !
 ! A18   A(10,9,29)            108.8822         estimate D2E/DX2                !
 ! A19   A(9,10,11)            106.3893         estimate D2E/DX2                !
 ! A20   A(9,10,12)            114.3683         estimate D2E/DX2                !
 ! A21   A(9,10,23)            114.5667         estimate D2E/DX2                !
 ! A22   A(11,10,12)           106.3814         estimate D2E/DX2                !
 ! A23   A(11,10,23)           106.4093         estimate D2E/DX2                !
 ! A24   A(12,10,23)           108.1041         estimate D2E/DX2                !
 ! A25   A(10,12,13)           108.7788         estimate D2E/DX2                !
 ! A26   A(10,12,14)           108.7668         estimate D2E/DX2                !
 ! A27   A(10,12,15)           113.9356         estimate D2E/DX2                !
 ! A28   A(13,12,14)           107.6708         estimate D2E/DX2                !
 ! A29   A(13,12,15)           108.7328         estimate D2E/DX2                !
 ! A30   A(14,12,15)           108.7783         estimate D2E/DX2                !
 ! A31   A(12,15,16)           109.963          estimate D2E/DX2                !
 ! A32   A(12,15,17)           110.002          estimate D2E/DX2                !
 ! A33   A(12,15,21)           108.4029         estimate D2E/DX2                !
 ! A34   A(16,15,17)           108.4196         estimate D2E/DX2                !
 ! A35   A(16,15,21)           110.0324         estimate D2E/DX2                !
 ! A36   A(17,15,21)           110.0178         estimate D2E/DX2                !
 ! A37   A(19,18,20)           109.9896         estimate D2E/DX2                !
 ! A38   A(19,18,21)           110.0054         estimate D2E/DX2                !
 ! A39   A(19,18,23)           110.0095         estimate D2E/DX2                !
 ! A40   A(20,18,21)           107.6006         estimate D2E/DX2                !
 ! A41   A(20,18,23)           107.8508         estimate D2E/DX2                !
 ! A42   A(21,18,23)           111.3266         estimate D2E/DX2                !
 ! A43   A(15,21,18)           110.7809         estimate D2E/DX2                !
 ! A44   A(15,21,22)           107.8656         estimate D2E/DX2                !
 ! A45   A(15,21,28)           111.5898         estimate D2E/DX2                !
 ! A46   A(18,21,22)           107.7832         estimate D2E/DX2                !
 ! A47   A(18,21,28)           110.8738         estimate D2E/DX2                !
 ! A48   A(22,21,28)           107.7755         estimate D2E/DX2                !
 ! A49   A(10,23,18)           112.2426         estimate D2E/DX2                !
 ! A50   A(10,23,24)           109.1633         estimate D2E/DX2                !
 ! A51   A(10,23,25)           109.1418         estimate D2E/DX2                !
 ! A52   A(18,23,24)           109.1683         estimate D2E/DX2                !
 ! A53   A(18,23,25)           109.1305         estimate D2E/DX2                !
 ! A54   A(24,23,25)           107.8968         estimate D2E/DX2                !
 ! A55   A(27,26,28)           119.3895         estimate D2E/DX2                !
 ! A56   A(27,26,38)           119.3876         estimate D2E/DX2                !
 ! A57   A(28,26,38)           121.2229         estimate D2E/DX2                !
 ! A58   A(21,28,26)           120.4802         estimate D2E/DX2                !
 ! A59   A(21,28,34)           119.2464         estimate D2E/DX2                !
 ! A60   A(26,28,34)           120.2714         estimate D2E/DX2                !
 ! A61   A(9,29,30)            109.4179         estimate D2E/DX2                !
 ! A62   A(9,29,31)            109.5124         estimate D2E/DX2                !
 ! A63   A(9,29,32)            109.5316         estimate D2E/DX2                !
 ! A64   A(30,29,31)           109.4582         estimate D2E/DX2                !
 ! A65   A(30,29,32)           109.4229         estimate D2E/DX2                !
 ! A66   A(31,29,32)           109.4843         estimate D2E/DX2                !
 ! A67   A(28,34,35)           120.1317         estimate D2E/DX2                !
 ! A68   A(28,34,40)           119.8837         estimate D2E/DX2                !
 ! A69   A(35,34,40)           119.9846         estimate D2E/DX2                !
 ! A70   A(34,35,36)           119.8733         estimate D2E/DX2                !
 ! A71   A(34,35,37)           120.2022         estimate D2E/DX2                !
 ! A72   A(36,35,37)           119.9245         estimate D2E/DX2                !
 ! A73   A(1,37,35)            120.3198         estimate D2E/DX2                !
 ! A74   A(1,37,38)            120.3626         estimate D2E/DX2                !
 ! A75   A(35,37,38)           119.3176         estimate D2E/DX2                !
 ! A76   A(26,38,37)           118.8495         estimate D2E/DX2                !
 ! A77   A(26,38,39)           120.6008         estimate D2E/DX2                !
 ! A78   A(37,38,39)           120.5497         estimate D2E/DX2                !
 ! D1    D(3,2,9,5)            -60.2983         estimate D2E/DX2                !
 ! D2    D(3,2,9,10)           177.027          estimate D2E/DX2                !
 ! D3    D(3,2,9,29)            58.726          estimate D2E/DX2                !
 ! D4    D(4,2,9,5)             59.6752         estimate D2E/DX2                !
 ! D5    D(4,2,9,10)           -62.9995         estimate D2E/DX2                !
 ! D6    D(4,2,9,29)           178.6994         estimate D2E/DX2                !
 ! D7    D(33,2,9,5)           179.7427         estimate D2E/DX2                !
 ! D8    D(33,2,9,10)           57.068          estimate D2E/DX2                !
 ! D9    D(33,2,9,29)          -61.2331         estimate D2E/DX2                !
 ! D10   D(6,5,9,2)             57.0632         estimate D2E/DX2                !
 ! D11   D(6,5,9,10)           179.0207         estimate D2E/DX2                !
 ! D12   D(6,5,9,29)           -60.0386         estimate D2E/DX2                !
 ! D13   D(7,5,9,2)            177.0031         estimate D2E/DX2                !
 ! D14   D(7,5,9,10)           -61.0394         estimate D2E/DX2                !
 ! D15   D(7,5,9,29)            59.9012         estimate D2E/DX2                !
 ! D16   D(8,5,9,2)            -62.9873         estimate D2E/DX2                !
 ! D17   D(8,5,9,10)            58.9702         estimate D2E/DX2                !
 ! D18   D(8,5,9,29)           179.9109         estimate D2E/DX2                !
 ! D19   D(2,9,10,11)          -69.7176         estimate D2E/DX2                !
 ! D20   D(2,9,10,12)           47.4082         estimate D2E/DX2                !
 ! D21   D(2,9,10,23)          173.0101         estimate D2E/DX2                !
 ! D22   D(5,9,10,11)          169.0849         estimate D2E/DX2                !
 ! D23   D(5,9,10,12)          -73.7892         estimate D2E/DX2                !
 ! D24   D(5,9,10,23)           51.8126         estimate D2E/DX2                !
 ! D25   D(29,9,10,11)          47.4437         estimate D2E/DX2                !
 ! D26   D(29,9,10,12)         164.5696         estimate D2E/DX2                !
 ! D27   D(29,9,10,23)         -69.8286         estimate D2E/DX2                !
 ! D28   D(2,9,29,30)           61.7623         estimate D2E/DX2                !
 ! D29   D(2,9,29,31)         -178.2611         estimate D2E/DX2                !
 ! D30   D(2,9,29,32)          -58.1827         estimate D2E/DX2                !
 ! D31   D(5,9,29,30)         -179.9328         estimate D2E/DX2                !
 ! D32   D(5,9,29,31)          -59.9562         estimate D2E/DX2                !
 ! D33   D(5,9,29,32)           60.1221         estimate D2E/DX2                !
 ! D34   D(10,9,29,30)         -57.4494         estimate D2E/DX2                !
 ! D35   D(10,9,29,31)          62.5272         estimate D2E/DX2                !
 ! D36   D(10,9,29,32)        -177.3944         estimate D2E/DX2                !
 ! D37   D(9,10,12,13)          36.5291         estimate D2E/DX2                !
 ! D38   D(9,10,12,14)         -80.481          estimate D2E/DX2                !
 ! D39   D(9,10,12,15)         157.9992         estimate D2E/DX2                !
 ! D40   D(11,10,12,13)        153.6595         estimate D2E/DX2                !
 ! D41   D(11,10,12,14)         36.6494         estimate D2E/DX2                !
 ! D42   D(11,10,12,15)        -84.8704         estimate D2E/DX2                !
 ! D43   D(23,10,12,13)        -92.3935         estimate D2E/DX2                !
 ! D44   D(23,10,12,14)        150.5965         estimate D2E/DX2                !
 ! D45   D(23,10,12,15)         29.0767         estimate D2E/DX2                !
 ! D46   D(9,10,23,18)         167.0394         estimate D2E/DX2                !
 ! D47   D(9,10,23,24)          45.8631         estimate D2E/DX2                !
 ! D48   D(9,10,23,25)         -71.8468         estimate D2E/DX2                !
 ! D49   D(11,10,23,18)         49.7785         estimate D2E/DX2                !
 ! D50   D(11,10,23,24)        -71.3978         estimate D2E/DX2                !
 ! D51   D(11,10,23,25)        170.8923         estimate D2E/DX2                !
 ! D52   D(12,10,23,18)        -64.1501         estimate D2E/DX2                !
 ! D53   D(12,10,23,24)        174.6736         estimate D2E/DX2                !
 ! D54   D(12,10,23,25)         56.9637         estimate D2E/DX2                !
 ! D55   D(10,12,15,16)        -87.8857         estimate D2E/DX2                !
 ! D56   D(10,12,15,17)        152.7754         estimate D2E/DX2                !
 ! D57   D(10,12,15,21)         32.4421         estimate D2E/DX2                !
 ! D58   D(13,12,15,16)         33.6099         estimate D2E/DX2                !
 ! D59   D(13,12,15,17)        -85.729          estimate D2E/DX2                !
 ! D60   D(13,12,15,21)        153.9377         estimate D2E/DX2                !
 ! D61   D(14,12,15,16)        150.6008         estimate D2E/DX2                !
 ! D62   D(14,12,15,17)         31.2619         estimate D2E/DX2                !
 ! D63   D(14,12,15,21)        -89.0714         estimate D2E/DX2                !
 ! D64   D(12,15,21,18)        -66.876          estimate D2E/DX2                !
 ! D65   D(12,15,21,22)         50.869          estimate D2E/DX2                !
 ! D66   D(12,15,21,28)        169.0662         estimate D2E/DX2                !
 ! D67   D(16,15,21,18)         53.4086         estimate D2E/DX2                !
 ! D68   D(16,15,21,22)        171.1536         estimate D2E/DX2                !
 ! D69   D(16,15,21,28)        -70.6492         estimate D2E/DX2                !
 ! D70   D(17,15,21,18)        172.8005         estimate D2E/DX2                !
 ! D71   D(17,15,21,22)        -69.4545         estimate D2E/DX2                !
 ! D72   D(17,15,21,28)         48.7427         estimate D2E/DX2                !
 ! D73   D(19,18,21,15)        -88.8518         estimate D2E/DX2                !
 ! D74   D(19,18,21,22)        153.3529         estimate D2E/DX2                !
 ! D75   D(19,18,21,28)         35.6143         estimate D2E/DX2                !
 ! D76   D(20,18,21,15)        151.3356         estimate D2E/DX2                !
 ! D77   D(20,18,21,22)         33.5404         estimate D2E/DX2                !
 ! D78   D(20,18,21,28)        -84.1982         estimate D2E/DX2                !
 ! D79   D(23,18,21,15)         33.3606         estimate D2E/DX2                !
 ! D80   D(23,18,21,22)        -84.4346         estimate D2E/DX2                !
 ! D81   D(23,18,21,28)        157.8268         estimate D2E/DX2                !
 ! D82   D(19,18,23,10)        153.7693         estimate D2E/DX2                !
 ! D83   D(19,18,23,24)        -85.0573         estimate D2E/DX2                !
 ! D84   D(19,18,23,25)         32.6491         estimate D2E/DX2                !
 ! D85   D(20,18,23,10)        -86.2647         estimate D2E/DX2                !
 ! D86   D(20,18,23,24)         34.9088         estimate D2E/DX2                !
 ! D87   D(20,18,23,25)        152.6151         estimate D2E/DX2                !
 ! D88   D(21,18,23,10)         31.5593         estimate D2E/DX2                !
 ! D89   D(21,18,23,24)        152.7327         estimate D2E/DX2                !
 ! D90   D(21,18,23,25)        -89.561          estimate D2E/DX2                !
 ! D91   D(15,21,28,26)         48.8959         estimate D2E/DX2                !
 ! D92   D(15,21,28,34)       -131.6129         estimate D2E/DX2                !
 ! D93   D(18,21,28,26)        -75.1095         estimate D2E/DX2                !
 ! D94   D(18,21,28,34)        104.3817         estimate D2E/DX2                !
 ! D95   D(22,21,28,26)        167.1472         estimate D2E/DX2                !
 ! D96   D(22,21,28,34)        -13.3617         estimate D2E/DX2                !
 ! D97   D(27,26,28,21)         -0.6274         estimate D2E/DX2                !
 ! D98   D(27,26,28,34)        179.8867         estimate D2E/DX2                !
 ! D99   D(38,26,28,21)        179.4377         estimate D2E/DX2                !
 ! D100  D(38,26,28,34)         -0.0482         estimate D2E/DX2                !
 ! D101  D(27,26,38,37)        179.6839         estimate D2E/DX2                !
 ! D102  D(27,26,38,39)         -0.3513         estimate D2E/DX2                !
 ! D103  D(28,26,38,37)         -0.3812         estimate D2E/DX2                !
 ! D104  D(28,26,38,39)        179.5836         estimate D2E/DX2                !
 ! D105  D(21,28,34,35)       -179.4247         estimate D2E/DX2                !
 ! D106  D(21,28,34,40)          0.599          estimate D2E/DX2                !
 ! D107  D(26,28,34,35)          0.0675         estimate D2E/DX2                !
 ! D108  D(26,28,34,40)       -179.9088         estimate D2E/DX2                !
 ! D109  D(28,34,35,36)       -179.7373         estimate D2E/DX2                !
 ! D110  D(28,34,35,37)          0.3546         estimate D2E/DX2                !
 ! D111  D(40,34,35,36)          0.2389         estimate D2E/DX2                !
 ! D112  D(40,34,35,37)       -179.6691         estimate D2E/DX2                !
 ! D113  D(34,35,37,1)         179.2993         estimate D2E/DX2                !
 ! D114  D(34,35,37,38)         -0.781          estimate D2E/DX2                !
 ! D115  D(36,35,37,1)          -0.6087         estimate D2E/DX2                !
 ! D116  D(36,35,37,38)        179.3111         estimate D2E/DX2                !
 ! D117  D(1,37,38,26)        -179.2906         estimate D2E/DX2                !
 ! D118  D(1,37,38,39)           0.7446         estimate D2E/DX2                !
 ! D119  D(35,37,38,26)          0.7897         estimate D2E/DX2                !
 ! D120  D(35,37,38,39)       -179.1751         estimate D2E/DX2                !
 --------------------------------------------------------------------------------
 Trust Radius=3.00D-01 FncErr=1.00D-07 GrdErr=1.00D-06
 Number of steps in this run=    240 maximum allowed number of steps=    240.
 GradGradGradGradGradGradGradGradGradGradGradGradGradGradGradGradGradGrad

 Leave Link  103 at Tue Dec 03 15:48:27 2013, MaxMem= 2147483648 cpu:       0.0
 (Enter C:\G09W\l202.exe)
                          Input orientation:                          
 ---------------------------------------------------------------------
 Center     Atomic      Atomic             Coordinates (Angstroms)
 Number     Number       Type             X           Y           Z
 ---------------------------------------------------------------------
      1          1           0       20.501220    9.166012   16.056038
      2          6           0       25.720120    9.084974    7.318941
      3          1           0       26.277595    8.884974    6.537453
      4          1           0       24.778407    9.106044    7.049792
      5          6           0       25.520358    6.655227    7.805322
      6          1           0       26.042028    6.478518    6.995143
      7          1           0       25.693728    5.951661    8.465216
      8          1           0       24.565706    6.668662    7.583992
      9          6           0       25.924818    8.002542    8.384607
     10          6           0       25.114613    8.338309    9.648378
     11          1           0       25.556300    9.134018   10.063715
     12          6           0       23.655874    8.743888    9.377863
     13          1           0       23.309088    8.203046    8.623699
     14          1           0       23.635657    9.694121    9.100517
     15          6           0       22.724934    8.561443   10.584252
     16          1           0       22.356702    7.642591   10.591083
     17          1           0       21.970692    9.200287   10.529602
     18          6           0       24.579358    7.729389   12.040662
     19          1           0       24.195311    6.964980   12.558467
     20          9           0       25.660209    8.307297   12.757938
     21          6           0       23.524893    8.809780   11.848023
     22          1           0       23.998981    9.684270   11.744189
     23          6           0       25.112990    7.239265   10.714045
     24          1           0       26.036256    6.906065   10.838372
     25          1           0       24.556429    6.483217   10.399810
     26          6           0       21.685528    7.977479   13.289405
     27          1           0       21.579121    7.258798   12.677330
     28          7           0       22.633356    8.910970   13.057144
     29          6           0       27.416501    7.997097    8.738463
     30          1           0       27.666114    8.868489    9.111446
     31          1           0       27.593359    7.296335    9.399723
     32          1           0       27.944056    7.825123    7.931016
     33          1           0       25.974956    9.957388    7.686459
     34          6           0       22.798149    9.939112   13.912410
     35          6           0       22.001948   10.042822   15.028627
     36          1           0       22.118774   10.771053   15.627039
     37          6           0       21.045663    9.101380   15.280015
     38          6           0       20.875771    8.048228   14.387861
     39          1           0       20.207943    7.389923   14.539513
     40          1           0       23.465663   10.593309   13.742996
 ---------------------------------------------------------------------
                    Distance matrix (angstroms):
                    1          2          3          4          5
     1  H    0.000000
     2  C   10.177443   0.000000
     3  H   11.137727   0.980563   0.000000
     4  H    9.970476   0.979648   1.599666   0.000000
     5  C    9.978482   2.485989   2.674449   2.669798   0.000000
     6  H   10.955501   2.646144   2.460894   2.916096   0.979672
     7  H    9.742422   3.336509   3.558300   3.576502   0.980062
     8  H    9.722776   2.691001   2.989624   2.504285   0.980065
     9  C    9.466780   1.532712   2.077287   2.076947   1.521321
    10  C    7.938929   2.520005   3.365892   2.730403   2.528685
    11  H    7.839821   2.750095   3.607882   3.112817   3.353511
    12  C    7.397841   2.935407   3.867979   2.609818   3.211182
    13  H    8.003192   2.879803   3.691813   2.334842   2.820496
    14  H    7.647410   2.808924   3.768800   2.420161   3.803222
    15  C    5.937243   4.461780   5.394688   4.123802   4.378413
    16  H    5.969034   4.909171   5.774845   4.532890   4.329442
    17  H    5.718568   4.937596   5.880994   4.472272   5.147733
    18  C    5.900707   5.043173   5.874070   5.181080   4.469610
    19  H    5.542910   5.854233   6.653939   5.938826   4.944096
    20  F    6.183043   5.494639   6.277684   5.830823   5.222767
    21  C    5.193929   5.040569   5.982071   4.968107   4.996739
    22  H    5.576286   4.785843   5.739430   4.793663   5.196571
    23  C    7.315577   3.911774   4.637735   4.125961   2.994614
    24  H    7.935239   4.151383   4.740489   4.558008   3.086821
    25  H    7.458890   4.197031   4.862988   4.260413   2.773105
    26  C    3.235654   7.290467   8.215807   7.054950   6.821248
    27  H    4.026787   7.013923   7.900519   6.731785   6.295562
    28  N    3.688416   6.518080   7.469105   6.381816   6.403498
    29  C   10.135797   2.465001   2.632467   3.322788   2.503343
    30  H    9.982564   2.654587   2.924671   3.556080   3.347949
    31  H    9.904577   3.322334   3.528115   4.089153   2.692669
    32  H   11.099990   2.628260   2.417104   3.526847   2.694210
    33  H   10.031845   0.980366   1.600587   1.600582   3.335425
    34  C    3.235538   7.262320   8.222393   7.191032   7.449217
    35  C    2.019048   8.612870   9.577150   8.499887   8.719583
    36  H    2.318766   9.210703  10.172201   9.133185   9.470483
    37  C    0.950162   9.231983  10.190797   9.037143   9.048623
    38  C    2.042681   8.632044   9.566021   8.378353   8.175723
    39  H    2.353796   9.240885  10.154252   8.940365   8.608766
    40  H    4.021848   6.973244   7.921189   6.980991   7.415270
                    6          7          8          9         10
     6  H    0.000000
     7  H    1.600002   0.000000
     8  H    1.600757   1.600962   0.000000
     9  C    2.065671   2.065432   2.065770   0.000000
    10  C    3.370249   2.726048   2.711220   1.538275   0.000000
    11  H    4.087022   3.563914   3.634321   2.058020   1.000373
    12  C    4.062387   3.575235   2.890041   2.585393   1.538048
    13  H    3.618722   3.283346   2.239289   2.634276   2.080428
    14  H    4.534679   4.318016   3.509735   2.934999   2.079829
    15  C    5.312569   4.484976   3.996576   3.923017   2.576085
    16  H    5.278965   4.302824   3.856272   4.210647   2.996462
    17  H    6.039553   5.355022   4.671172   4.655180   3.376951
    18  C    5.400125   4.145595   4.581184   3.905331   2.525926
    19  H    5.881971   4.475129   4.997039   4.635605   3.346605
    20  F    6.058054   4.896693   5.536495   4.391914   3.157214
    21  C    5.943164   4.931133   4.883609   4.290282   2.754619
    22  H    6.083117   5.249400   5.169362   4.221829   2.729224
    23  C    3.907951   2.655638   3.228365   2.582234   1.530864
    24  H    3.866942   2.580714   3.579088   2.689915   2.077700
    25  H    3.714671   2.306221   2.821933   2.870867   2.077880
    26  C    7.800238   6.591085   6.523815   6.482996   5.014568
    27  H    7.267298   6.031625   5.933805   6.153511   4.779078
    28  N    7.367749   6.261724   6.222324   5.787189   4.254910
    29  C    2.689688   2.688200   3.350310   1.533090   2.498612
    30  H    3.581669   3.579917   4.096936   2.076119   2.660742
    31  H    2.976148   2.507997   3.585741   2.076828   2.700319
    32  H    2.511357   2.976441   3.587628   2.077148   3.349394
    33  H    3.547528   4.090403   3.579415   2.076379   2.685281
    34  C    8.387315   7.345480   7.339549   6.639500   5.109847
    35  C    9.672816   8.570017   8.566236   7.980892   6.445240
    36  H   10.408046   9.343370   9.354555   8.637328   7.116016
    37  C   10.024080   8.829877   8.805543   8.518230   6.989561
    38  C    9.154588   7.917451   7.862026   7.844362   6.365110
    39  H    9.580435   8.310206   8.239514   8.422638   6.992714
    40  H    8.312802   7.373204   7.385546   6.439864   4.956809
                   11         12         13         14         15
    11  H    0.000000
    12  C    2.057721   0.000000
    13  H    2.826715   0.990724   0.000000
    14  H    2.220436   0.990087   1.599158   0.000000
    15  C    2.935206   1.534701   2.076885   2.076980   0.000000
    16  H    3.569300   2.091077   2.256490   2.840121   0.989914
    17  H    3.616356   2.091564   2.533428   2.249059   0.989944
    18  C    2.614521   2.995419   3.676081   3.659945   2.500467
    19  H    3.575026   3.683985   4.219075   4.440590   2.933978
    20  F    2.820125   3.953844   4.757160   4.404409   3.661330
    21  C    2.723141   2.474507   3.288002   2.888445   1.516154
    22  H    2.356270   2.569346   3.522418   2.668540   2.056548
    23  C    2.051717   2.484443   2.924462   3.288206   2.732729
    24  H    2.407120   3.343188   3.744914   4.068940   3.710755
    25  H    2.852972   2.639320   2.769159   3.584116   2.776223
    26  C    5.169675   4.446325   4.945264   4.929163   2.956219
    27  H    5.115211   4.171915   4.507362   4.791005   2.718592
    28  N    4.189746   3.822377   4.540177   4.156060   2.499150
    29  C    2.551319   3.887011   4.114174   4.160019   5.073088
    30  H    2.329943   4.021011   4.434454   4.114167   5.165142
    31  H    2.822689   4.195197   4.447394   4.637057   5.167704
    32  H    3.458755   4.618008   4.701655   4.839750   5.900937
    33  H    2.550403   3.116340   3.326107   2.746122   4.572582
    34  C    4.802919   4.767218   5.589762   4.890374   3.602772
    35  C    6.173305   6.029413   6.790912   6.158984   4.740217
    36  H    6.741443   6.747168   7.553693   6.786473   5.538909
    37  C    6.896136   6.463466   7.087781   6.726485   5.016141
    38  C    6.464096   5.771741   6.258639   6.187240   4.260309
    39  H    7.188850   6.353273   6.728679   6.829439   4.832370
    40  H    4.476316   4.744568   5.651997   4.731813   3.828162
                   16         17         18         19         20
    16  H    0.000000
    17  H    1.605989   0.000000
    18  C    2.654998   3.354397   0.000000
    19  H    2.776731   3.749909   0.999968   0.000000
    20  F    4.006276   4.401755   1.420105   1.996880   0.000000
    21  C    2.075307   2.075155   1.521923   2.087457   2.374870
    22  H    2.862723   2.413175   2.060653   2.845370   2.383992
    23  C    2.788353   3.708592   1.511588   2.078283   2.370156
    24  H    3.760683   4.678419   2.060562   2.520174   2.406157
    25  H    2.493899   3.753046   2.060551   2.241050   3.179051
    26  C    2.800636   3.032010   3.161512   2.803289   4.023596
    27  H    2.259282   2.921548   3.102938   2.635318   4.214395
    28  N    2.786894   2.628934   2.493249   2.544653   3.100933
    29  C    5.399948   5.857703   4.361831   5.102329   4.397381
    30  H    5.646415   5.878698   4.405214   5.248978   4.199463
    31  H    5.381617   6.042850   4.030669   4.651257   4.004587
    32  H    6.190944   6.657687   5.312207   6.017162   5.361681
    33  H    5.185257   4.968983   5.086330   5.988164   5.342449
    34  C    4.062031   3.560047   3.399856   3.553968   3.490991
    35  C    5.057544   4.577342   4.574160   4.515046   4.642300
    36  H    5.933358   5.336019   5.307381   5.311717   5.181081
    37  C    5.082615   4.840649   4.986258   4.678815   5.318409
    38  C    4.095512   4.172799   4.396312   3.942011   5.061088
    39  H    4.502345   4.739630   5.046659   4.472608   5.808855
    40  H    4.457700   3.808064   3.512876   3.885907   3.318468
                   21         22         23         24         25
    21  C    0.000000
    22  H    1.000136   0.000000
    23  C    2.504890   2.877544   0.000000
    24  H    3.309149   3.562220   0.989394   0.000000
    25  H    2.928188   3.516368   0.990006   1.600320   0.000000
    26  C    2.480639   3.263877   4.350279   5.107281   4.338738
    27  H    2.622847   3.550970   4.042659   4.834484   3.827922
    28  N    1.505673   2.046162   3.799117   4.530157   4.080885
    29  C    5.047220   4.853904   3.127842   2.739534   3.637570
    30  H    4.964071   4.587449   3.426534   3.080555   4.125475
    31  H    4.983683   4.911038   2.807656   2.155596   3.299133
    32  H    5.986776   5.793127   4.012906   3.596816   4.401326
    33  H    4.963710   4.521530   4.159021   4.387356   4.630805
    34  C    2.462771   2.491611   4.783012   5.397631   5.231933
    35  C    3.735772   3.860600   6.012830   6.608564   6.373547
    36  H    4.483830   4.448911   6.751027   7.294939   7.186907
    37  C    4.243841   4.643696   6.392081   7.032327   6.557184
    38  C    3.748145   4.406822   5.666160   6.366633   5.648102
    39  H    4.501364   5.239259   6.222250   6.921112   6.071951
    40  H    2.602961   2.259649   4.810181   5.351688   5.409208
                   26         27         28         29         30
    26  C    0.000000
    27  H    0.949979   0.000000
    28  N    1.350455   1.996332   0.000000
    29  C    7.318163   7.080590   6.508813   0.000000
    30  H    7.349601   7.235890   6.395232   0.980177   0.000000
    31  H    7.106057   6.849465   6.370667   0.979596   1.600020
    32  H    8.240431   7.959937   7.460548   0.979724   1.599775
    33  H    7.328863   7.177363   6.411360   2.650945   2.465016
    34  C    2.339672   3.193045   1.347484   7.202106   6.920446
    35  C    2.718576   3.668538   2.359345   8.548013   8.274953
    36  H    3.668282   4.618219   3.213887   9.122129   8.766167
    37  C    2.373839   3.233212   2.738280   9.197767   9.051842
    38  C    1.366498   2.010925   2.367327   8.642885   8.638410
    39  H    2.022684   2.316258   3.223915   9.272764   9.342076
    40  H    3.196435   3.976638   1.998348   6.884388   6.486143
                   31         32         33         34         35
    31  H    0.000000
    32  H    1.599907   0.000000
    33  H    3.554673   2.912682   0.000000
    34  C    7.095256   8.168622   6.989628   0.000000
    35  C    8.395929   9.518556   8.348623   1.375002   0.000000
    36  H    8.990229  10.091639   8.864818   2.023272   0.949772
    37  C    8.983782  10.159943   9.093556   2.375572   1.365280
    38  C    8.400765   9.576078   8.634545   2.738071   2.378500
    39  H    8.998365  10.183765   9.317439   3.687925   3.239685
    40  H    6.839001   7.842064   6.586546   0.949869   2.024437
                   36         37         38         39         40
    36  H    0.000000
    37  C    2.014895   0.000000
    38  C    3.239506   1.390659   0.000000
    39  H    4.033117   2.044310   0.949926   0.000000
    40  H    2.322783   3.231823   3.687930   4.637765   0.000000
 Stoichiometry    C15H23FN(1+)
 Framework group  C1[X(C15H23FN)]
 Deg. of freedom   114
 Full point group                 C1      NOp   1
 Largest Abelian subgroup         C1      NOp   1
 Largest concise Abelian subgroup C1      NOp   1
                         Standard orientation:                         
 ---------------------------------------------------------------------
 Center     Atomic      Atomic             Coordinates (Angstroms)
 Number     Number       Type             X           Y           Z
 ---------------------------------------------------------------------
      1          1           0        5.969521   -0.158640   -0.089740
      2          6           0       -4.092895   -0.779561    1.304026
      3          1           0       -5.071451   -0.768003    1.242394
      4          1           0       -3.778864   -1.707413    1.317627
      5          6           0       -3.930879   -0.767572   -1.176649
      6          1           0       -4.909315   -0.800794   -1.212934
      7          1           0       -3.591566   -0.280808   -1.956680
      8          1           0       -3.571724   -1.679457   -1.177920
      9          6           0       -3.494893   -0.053443    0.093922
     10          6           0       -1.962080    0.003699    0.210153
     11          1           0       -1.759163    0.634064    0.959960
     12          6           0       -1.303281   -1.336129    0.579529
     13          1           0       -1.799127   -2.068932    0.133806
     14          1           0       -1.382215   -1.471062    1.557196
     15          6           0        0.176904   -1.431694    0.185539
     16          1           0        0.258764   -1.768466   -0.741722
     17          1           0        0.648096   -2.059243    0.788987
     18          6           0        0.199987    0.885857   -0.752948
     19          1           0        0.728752    0.830180   -1.599850
     20          9           0        0.257842    2.205040   -0.230347
     21          6           0        0.790804   -0.049494    0.292186
     22          1           0        0.564056    0.318179    1.194226
     23          6           0       -1.250297    0.558914   -1.026230
     24          1           0       -1.716342    1.377433   -1.329101
     25          1           0       -1.300585   -0.107669   -1.756470
     26          6           0        2.881050   -0.788196   -0.820810
     27          1           0        2.340202   -1.249707   -1.450850
     28          7           0        2.291469   -0.099650    0.180203
     29          6           0       -4.047345    1.376556    0.110160
     30          1           0       -3.759987    1.827600    0.931581
     31          1           0       -3.708482    1.867079   -0.667122
     32          1           0       -5.026193    1.349919    0.078456
     33          1           0       -3.812782   -0.327245    2.127473
     34          6           0        3.041549    0.559477    1.084992
     35          6           0        4.413270    0.535728    0.993076
     36          1           0        4.938492    0.998519    1.634975
     37          6           0        5.022050   -0.149335   -0.018884
     38          6           0        4.241245   -0.834461   -0.943480
     39          1           0        4.646808   -1.326385   -1.647673
     40          1           0        2.621117    1.040969    1.787597
 ---------------------------------------------------------------------
 Rotational constants (GHZ):      1.2652537      0.2220987      0.2126195
 Leave Link  202 at Tue Dec 03 15:48:27 2013, MaxMem= 2147483648 cpu:       0.0
 (Enter C:\G09W\l301.exe)
 Standard basis: CC-pVDZ (5D, 7F)
 Ernie: Thresh=  0.10000D-02 Tol=  0.10000D-05 Strict=F.
 Ernie:  34 primitive shells out of 489 were deleted.
 There are   353 symmetry adapted basis functions of A   symmetry.
 Integral buffers will be    131072 words long.
 Raffenetti 2 integral format.
 Two-electron integral symmetry is turned on.
   353 basis functions,   722 primitive gaussians,   370 cartesian basis functions
    64 alpha electrons       64 beta electrons
       nuclear repulsion energy      1296.3941979245 Hartrees.
 IExCor= 4235 DFT=T Ex+Corr=M06 ExCW=0 ScaHFX=  0.270000
 ScaDFX=  1.000000  1.000000  1.000000  1.000000 ScalE2=  1.000000  1.000000
 IRadAn=      5 IRanWt=     -1 IRanGd=            0 ICorTp=0
 NAtoms=   40 NActive=   40 NUniq=   40 SFac= 1.00D+00 NAtFMM=   60 NAOKFM=F Big=F
 ------------------------------------------------------------------------------
 Polarizable Continuum Model (PCM)
 =================================
 Model                : PCM.
 Atomic radii         : UFF (Universal Force Field).
 Polarization charges : Total charges.
 Charge compensation  : None.
 Solution method      : Matrix inversion.
 Cavity type          : Scaled VdW (van der Waals Surface) (Alpha=1.100).
 Cavity algorithm     : GePol (No added spheres)
                        Default sphere list used, NSphG=   40.
                        Lebedev-Laikov grids with approx.  5.0 points / Ang**2.
                        Smoothing algorithm: Karplus/York (Gamma=1.0000).
                        Polarization charges: spherical gaussians, with
                                              point-specific exponents (IZeta= 3).
                        Self-potential: point-specific (ISelfS= 7).
                        Self-field    : sphere-specific E.n sum rule (ISelfD= 2).
 1st derivatives      : Analytical E(r).r(x)/FMM algorithm (CHGder, D1EAlg=3).
                        Cavity 1st derivative terms included.
 Solvent              : Chloroform, Eps=   4.711300 Eps(inf)=   2.090627
 ------------------------------------------------------------------------------
 GePol: Number of generator spheres                  =      40
 GePol: Total number of spheres                      =      40
 GePol: Number of exposed spheres                    =      40 (100.00%)
 GePol: Number of points                             =    2466
 GePol: Average weight of points                     =       0.13
 GePol: Minimum weight of points                     =   0.20D-10
 GePol: Maximum weight of points                     =    0.20577
 GePol: Number of points with low weight             =     186
 GePol: Fraction of low-weight points (<1% of avg)   =       7.54%
 GePol: Cavity surface area                          =    311.817 Ang**2
 GePol: Cavity volume                                =    345.313 Ang**3
 Leave Link  301 at Tue Dec 03 15:48:28 2013, MaxMem= 2147483648 cpu:       1.0
 (Enter C:\G09W\l302.exe)
 NPDir=0 NMtPBC=     1 NCelOv=     1 NCel=       1 NClECP=     1 NCelD=      1
         NCelK=      1 NCelE2=     1 NClLst=     1 CellRange=     0.0.
 One-electron integrals computed using PRISM.
 NBasis=   353 RedAO= T  NBF=   353
 NBsUse=   353 1.00D-06 NBFU=   353
 Precomputing XC quadrature grid using
 IXCGrd= 2 IRadAn=           5 IRanWt=          -1 IRanGd=           0 AccXCQ= 0.00D+00.
 NRdTot=    3364 NPtTot=      906684 NUsed=      930765 NTot=      930797
 NSgBfM=   369   369   369   369   369 NAtAll=    40    40.
 Leave Link  302 at Tue Dec 03 15:48:30 2013, MaxMem= 2147483648 cpu:       2.0
 (Enter C:\G09W\l303.exe)
 DipDrv:  MaxL=1.
 Leave Link  303 at Tue Dec 03 15:48:30 2013, MaxMem= 2147483648 cpu:       0.0
 (Enter C:\G09W\l401.exe)
 Harris functional with IExCor= 1009 diagonalized for initial guess.
 ExpMin= 1.22D-01 ExpMax= 1.47D+04 ExpMxC= 5.03D+02 IAcc=3 IRadAn=         5 AccDes= 0.00D+00
 HarFok:  IExCor= 1009 AccDes= 0.00D+00 IRadAn=         5 IDoV= 1
 ScaDFX=  1.000000  1.000000  1.000000  1.000000
 FoFCou: FMM=F IPFlag=           0 FMFlag=      100000 FMFlg1=           0
         NFxFlg=           0 DoJE=T BraDBF=F KetDBF=T FulRan=T
         Omega=  0.000000  0.000000  1.000000  0.000000  0.000000 ICntrl=     500 IOpCl=  0
         NMat0=    1 NMatS0=    1 NMatT0=    0 NMatD0=    1 NMtDS0=    0 NMtDT0=    0
         I1Cent=           4 NGrid=           0.
 Petite list used in FoFCou.
 Harris En= -739.067456649907    
 Initial guess orbital symmetries:
       Occupied  (A) (A) (A) (A) (A) (A) (A) (A) (A) (A) (A) (A)
                 (A) (A) (A) (A) (A) (A) (A) (A) (A) (A) (A) (A)
                 (A) (A) (A) (A) (A) (A) (A) (A) (A) (A) (A) (A)
                 (A) (A) (A) (A) (A) (A) (A) (A) (A) (A) (A) (A)
                 (A) (A) (A) (A) (A) (A) (A) (A) (A) (A) (A) (A)
                 (A) (A) (A) (A)
       Virtual   (A) (A) (A) (A) (A) (A) (A) (A) (A) (A) (A) (A)
                 (A) (A) (A) (A) (A) (A) (A) (A) (A) (A) (A) (A)
                 (A) (A) (A) (A) (A) (A) (A) (A) (A) (A) (A) (A)
                 (A) (A) (A) (A) (A) (A) (A) (A) (A) (A) (A) (A)
                 (A) (A) (A) (A) (A) (A) (A) (A) (A) (A) (A) (A)
                 (A) (A) (A) (A) (A) (A) (A) (A) (A) (A) (A) (A)
                 (A) (A) (A) (A) (A) (A) (A) (A) (A) (A) (A) (A)
                 (A) (A) (A) (A) (A) (A) (A) (A) (A) (A) (A) (A)
                 (A) (A) (A) (A) (A) (A) (A) (A) (A) (A) (A) (A)
                 (A) (A) (A) (A) (A) (A) (A) (A) (A) (A) (A) (A)
                 (A) (A) (A) (A) (A) (A) (A) (A) (A) (A) (A) (A)
                 (A) (A) (A) (A) (A) (A) (A) (A) (A) (A) (A) (A)
                 (A) (A) (A) (A) (A) (A) (A) (A) (A) (A) (A) (A)
                 (A) (A) (A) (A) (A) (A) (A) (A) (A) (A) (A) (A)
                 (A) (A) (A) (A) (A) (A) (A) (A) (A) (A) (A) (A)
                 (A) (A) (A) (A) (A) (A) (A) (A) (A) (A) (A) (A)
                 (A) (A) (A) (A) (A) (A) (A) (A) (A) (A) (A) (A)
                 (A) (A) (A) (A) (A) (A) (A) (A) (A) (A) (A) (A)
                 (A) (A) (A) (A) (A) (A) (A) (A) (A) (A) (A) (A)
                 (A) (A) (A) (A) (A) (A) (A) (A) (A) (A) (A) (A)
                 (A) (A) (A) (A) (A) (A) (A) (A) (A) (A) (A) (A)
                 (A) (A) (A) (A) (A) (A) (A) (A) (A) (A) (A) (A)
                 (A) (A) (A) (A) (A) (A) (A) (A) (A) (A) (A) (A)
                 (A) (A) (A) (A) (A) (A) (A) (A) (A) (A) (A) (A)
                 (A)
 The electronic state of the initial guess is 1-A.
 Leave Link  401 at Tue Dec 03 15:48:41 2013, MaxMem= 2147483648 cpu:      11.0
 (Enter C:\G09W\l502.exe)
 Closed shell SCF:
 Requested convergence on RMS density matrix=1.00D-08 within 128 cycles.
 Requested convergence on MAX density matrix=1.00D-06.
 Requested convergence on             energy=1.00D-06.
 No special actions if energy rises.
 Using DIIS extrapolation, IDIIS=  1040.
 Integral symmetry usage will be decided dynamically.
       930392 words used for storage of precomputed grid.
 IEnd=     1366502 IEndB=     1366502 NGot=  2147483648 MDV=  2146271057
 LenX=  2146271057 LenY=  2146133716
 Fock matrices will be formed incrementally for  20 cycles.

 Cycle   1  Pass 1  IDiag  1:
 FoFCou: FMM=F IPFlag=           0 FMFlag=      100000 FMFlg1=           0
         NFxFlg=           0 DoJE=F BraDBF=F KetDBF=F FulRan=T
         Omega=  0.000000  0.000000  1.000000  0.000000  0.000000 ICntrl=       0 IOpCl=  0
         NMat0=    1 NMatS0=    1 NMatT0=    0 NMatD0=    1 NMtDS0=    0 NMtDT0=    0
         I1Cent=           0 NGrid=           0.
 Symmetry not used in FoFCou.
 E= -738.609319740904    
 DIIS: error= 2.28D-02 at cycle   1 NSaved=   1.
 NSaved= 1 IEnMin= 1 EnMin= -738.609319740904     IErMin= 1 ErrMin= 2.28D-02
 ErrMax= 2.28D-02 EMaxC= 1.00D-01 BMatC= 4.40D-01 BMatP= 4.40D-01
 IDIUse=3 WtCom= 7.72D-01 WtEn= 2.28D-01
 Coeff-Com:  0.100D+01
 Coeff-En:   0.100D+01
 Coeff:      0.100D+01
 Gap=     0.206 Goal=   None    Shift=    0.000
 GapD=    0.206 DampG=1.000 DampE=0.500 DampFc=0.5000 IDamp=-1.
 Damping current iteration by 5.00D-01
 RMSDP=3.99D-03 MaxDP=1.35D-01              OVMax= 2.17D-01

 Cycle   2  Pass 1  IDiag  1:
 RMSU=  1.40D-03    CP:  9.84D-01
 E= -738.812179676589     Delta-E=       -0.202859935685 Rises=F Damp=T
 DIIS: error= 7.62D-03 at cycle   2 NSaved=   2.
 NSaved= 2 IEnMin= 2 EnMin= -738.812179676589     IErMin= 2 ErrMin= 7.62D-03
 ErrMax= 7.62D-03 EMaxC= 1.00D-01 BMatC= 3.03D-02 BMatP= 4.40D-01
 IDIUse=3 WtCom= 9.24D-01 WtEn= 7.62D-02
 Coeff-Com:  0.875D-01 0.913D+00
 Coeff-En:   0.132D+00 0.868D+00
 Coeff:      0.909D-01 0.909D+00
 Gap=     0.224 Goal=   None    Shift=    0.000
 RMSDP=1.11D-03 MaxDP=6.62D-02 DE=-2.03D-01 OVMax= 1.91D-01

 Cycle   3  Pass 1  IDiag  1:
 RMSU=  7.57D-04    CP:  9.75D-01  8.75D-01
 E= -739.052250243255     Delta-E=       -0.240070566666 Rises=F Damp=F
 DIIS: error= 9.21D-03 at cycle   3 NSaved=   3.
 NSaved= 3 IEnMin= 3 EnMin= -739.052250243255     IErMin= 2 ErrMin= 7.62D-03
 ErrMax= 9.21D-03 EMaxC= 1.00D-01 BMatC= 3.30D-02 BMatP= 3.03D-02
 IDIUse=3 WtCom= 9.08D-01 WtEn= 9.21D-02
 Coeff-Com:  0.325D-02 0.511D+00 0.486D+00
 Coeff-En:   0.000D+00 0.000D+00 0.100D+01
 Coeff:      0.295D-02 0.464D+00 0.533D+00
 Gap=     0.209 Goal=   None    Shift=    0.000
 RMSDP=5.49D-04 MaxDP=4.60D-02 DE=-2.40D-01 OVMax= 6.39D-02

 Cycle   4  Pass 1  IDiag  1:
 RMSU=  2.99D-04    CP:  9.77D-01  9.39D-01  6.96D-01
 E= -739.080237190593     Delta-E=       -0.027986947338 Rises=F Damp=F
 DIIS: error= 3.42D-03 at cycle   4 NSaved=   4.
 NSaved= 4 IEnMin= 4 EnMin= -739.080237190593     IErMin= 4 ErrMin= 3.42D-03
 ErrMax= 3.42D-03 EMaxC= 1.00D-01 BMatC= 4.50D-03 BMatP= 3.03D-02
 IDIUse=3 WtCom= 9.66D-01 WtEn= 3.42D-02
 Coeff-Com: -0.190D-03 0.111D+00 0.296D+00 0.593D+00
 Coeff-En:   0.000D+00 0.000D+00 0.120D+00 0.880D+00
 Coeff:     -0.183D-03 0.107D+00 0.290D+00 0.603D+00
 Gap=     0.205 Goal=   None    Shift=    0.000
 RMSDP=1.66D-04 MaxDP=1.28D-02 DE=-2.80D-02 OVMax= 1.63D-02

 Cycle   5  Pass 1  IDiag  1:
 RMSU=  5.15D-05    CP:  9.77D-01  9.26D-01  7.46D-01  6.77D-01
 E= -739.084470437429     Delta-E=       -0.004233246836 Rises=F Damp=F
 DIIS: error= 3.31D-04 at cycle   5 NSaved=   5.
 NSaved= 5 IEnMin= 5 EnMin= -739.084470437429     IErMin= 5 ErrMin= 3.31D-04
 ErrMax= 3.31D-04 EMaxC= 1.00D-01 BMatC= 7.25D-05 BMatP= 4.50D-03
 IDIUse=3 WtCom= 9.97D-01 WtEn= 3.31D-03
 Coeff-Com: -0.208D-03 0.765D-02 0.712D-01 0.206D+00 0.716D+00
 Coeff-En:   0.000D+00 0.000D+00 0.000D+00 0.000D+00 0.100D+01
 Coeff:     -0.208D-03 0.763D-02 0.710D-01 0.205D+00 0.717D+00
 Gap=     0.209 Goal=   None    Shift=    0.000
 RMSDP=3.45D-05 MaxDP=1.25D-03 DE=-4.23D-03 OVMax= 2.17D-03

 Cycle   6  Pass 1  IDiag  1:
 RMSU=  1.74D-05    CP:  9.77D-01  9.22D-01  7.53D-01  7.03D-01  7.35D-01
 E= -739.084531308345     Delta-E=       -0.000060870916 Rises=F Damp=F
 DIIS: error= 1.19D-04 at cycle   6 NSaved=   6.
 NSaved= 6 IEnMin= 6 EnMin= -739.084531308345     IErMin= 6 ErrMin= 1.19D-04
 ErrMax= 1.19D-04 EMaxC= 1.00D-01 BMatC= 1.54D-05 BMatP= 7.25D-05
 IDIUse=3 WtCom= 9.99D-01 WtEn= 1.19D-03
 Coeff-Com:  0.722D-04-0.677D-02 0.666D-02 0.398D-01 0.354D+00 0.606D+00
 Coeff-En:   0.000D+00 0.000D+00 0.000D+00 0.000D+00 0.857D-01 0.914D+00
 Coeff:      0.722D-04-0.676D-02 0.666D-02 0.398D-01 0.354D+00 0.607D+00
 Gap=     0.208 Goal=   None    Shift=    0.000
 RMSDP=1.08D-05 MaxDP=5.61D-04 DE=-6.09D-05 OVMax= 6.38D-04

 Cycle   7  Pass 1  IDiag  1:
 RMSU=  4.79D-06    CP:  9.77D-01  9.23D-01  7.52D-01  6.99D-01  8.05D-01
                    CP:  7.48D-01
 E= -739.084545094835     Delta-E=       -0.000013786489 Rises=F Damp=F
 DIIS: error= 2.53D-05 at cycle   7 NSaved=   7.
 NSaved= 7 IEnMin= 7 EnMin= -739.084545094835     IErMin= 7 ErrMin= 2.53D-05
 ErrMax= 2.53D-05 EMaxC= 1.00D-01 BMatC= 5.90D-07 BMatP= 1.54D-05
 IDIUse=1 WtCom= 1.00D+00 WtEn= 0.00D+00
 Coeff-Com:  0.491D-04-0.286D-02-0.164D-02 0.975D-03 0.883D-01 0.228D+00
 Coeff-Com:  0.687D+00
 Coeff:      0.491D-04-0.286D-02-0.164D-02 0.975D-03 0.883D-01 0.228D+00
 Coeff:      0.687D+00
 Gap=     0.208 Goal=   None    Shift=    0.000
 RMSDP=2.66D-06 MaxDP=1.02D-04 DE=-1.38D-05 OVMax= 2.65D-04

 Cycle   8  Pass 1  IDiag  1:
 RMSU=  1.38D-06    CP:  9.77D-01  9.23D-01  7.53D-01  7.00D-01  8.07D-01
                    CP:  7.87D-01  8.11D-01
 E= -739.084545587689     Delta-E=       -0.000000492854 Rises=F Damp=F
 DIIS: error= 1.05D-05 at cycle   8 NSaved=   8.
 NSaved= 8 IEnMin= 8 EnMin= -739.084545587689     IErMin= 8 ErrMin= 1.05D-05
 ErrMax= 1.05D-05 EMaxC= 1.00D-01 BMatC= 9.03D-08 BMatP= 5.90D-07
 IDIUse=1 WtCom= 1.00D+00 WtEn= 0.00D+00
 Coeff-Com:  0.359D-04-0.627D-03-0.120D-02-0.342D-02 0.864D-02 0.467D-01
 Coeff-Com:  0.315D+00 0.635D+00
 Coeff:      0.359D-04-0.627D-03-0.120D-02-0.342D-02 0.864D-02 0.467D-01
 Coeff:      0.315D+00 0.635D+00
 Gap=     0.208 Goal=   None    Shift=    0.000
 RMSDP=8.74D-07 MaxDP=4.52D-05 DE=-4.93D-07 OVMax= 1.04D-04

 Cycle   9  Pass 1  IDiag  1:
 RMSU=  4.50D-07    CP:  9.77D-01  9.23D-01  7.53D-01  7.00D-01  8.08D-01
                    CP:  7.89D-01  8.50D-01  7.35D-01
 E= -739.084545662910     Delta-E=       -0.000000075220 Rises=F Damp=F
 DIIS: error= 3.33D-06 at cycle   9 NSaved=   9.
 NSaved= 9 IEnMin= 9 EnMin= -739.084545662910     IErMin= 9 ErrMin= 3.33D-06
 ErrMax= 3.33D-06 EMaxC= 1.00D-01 BMatC= 9.23D-09 BMatP= 9.03D-08
 IDIUse=1 WtCom= 1.00D+00 WtEn= 0.00D+00
 Coeff-Com:  0.140D-04-0.278D-04-0.333D-03-0.164D-02-0.431D-02-0.280D-02
 Coeff-Com:  0.675D-01 0.282D+00 0.660D+00
 Coeff:      0.140D-04-0.278D-04-0.333D-03-0.164D-02-0.431D-02-0.280D-02
 Coeff:      0.675D-01 0.282D+00 0.660D+00
 Gap=     0.208 Goal=   None    Shift=    0.000
 RMSDP=3.05D-07 MaxDP=1.64D-05 DE=-7.52D-08 OVMax= 4.70D-05

 Cycle  10  Pass 1  IDiag  1:
 RMSU=  1.47D-07    CP:  9.77D-01  9.23D-01  7.53D-01  7.00D-01  8.09D-01
                    CP:  7.90D-01  8.58D-01  7.96D-01  7.43D-01
 E= -739.084545671199     Delta-E=       -0.000000008290 Rises=F Damp=F
 DIIS: error= 1.04D-06 at cycle  10 NSaved=  10.
 NSaved=10 IEnMin=10 EnMin= -739.084545671199     IErMin=10 ErrMin= 1.04D-06
 ErrMax= 1.04D-06 EMaxC= 1.00D-01 BMatC= 1.01D-09 BMatP= 9.23D-09
 IDIUse=1 WtCom= 1.00D+00 WtEn= 0.00D+00
 Coeff-Com:  0.338D-05 0.570D-04-0.232D-04-0.444D-03-0.301D-02-0.692D-02
 Coeff-Com: -0.238D-02 0.615D-01 0.300D+00 0.652D+00
 Coeff:      0.338D-05 0.570D-04-0.232D-04-0.444D-03-0.301D-02-0.692D-02
 Coeff:     -0.238D-02 0.615D-01 0.300D+00 0.652D+00
 Gap=     0.208 Goal=   None    Shift=    0.000
 RMSDP=1.02D-07 MaxDP=4.92D-06 DE=-8.29D-09 OVMax= 1.33D-05

 Cycle  11  Pass 1  IDiag  1:
 RMSU=  5.07D-08    CP:  9.77D-01  9.23D-01  7.53D-01  7.00D-01  8.09D-01
                    CP:  7.90D-01  8.59D-01  8.03D-01  8.24D-01  7.89D-01
 E= -739.084545672213     Delta-E=       -0.000000001014 Rises=F Damp=F
 DIIS: error= 2.71D-07 at cycle  11 NSaved=  11.
 NSaved=11 IEnMin=11 EnMin= -739.084545672213     IErMin=11 ErrMin= 2.71D-07
 ErrMax= 2.71D-07 EMaxC= 1.00D-01 BMatC= 8.68D-11 BMatP= 1.01D-09
 IDIUse=1 WtCom= 1.00D+00 WtEn= 0.00D+00
 Coeff-Com:  0.374D-06 0.199D-04 0.180D-04-0.280D-04-0.686D-03-0.250D-02
 Coeff-Com: -0.686D-02-0.294D-02 0.541D-01 0.272D+00 0.687D+00
 Coeff:      0.374D-06 0.199D-04 0.180D-04-0.280D-04-0.686D-03-0.250D-02
 Coeff:     -0.686D-02-0.294D-02 0.541D-01 0.272D+00 0.687D+00
 Gap=     0.208 Goal=   None    Shift=    0.000
 RMSDP=3.17D-08 MaxDP=1.59D-06 DE=-1.01D-09 OVMax= 4.98D-06

 Cycle  12  Pass 1  IDiag  1:
 RMSU=  1.50D-08    CP:  9.77D-01  9.23D-01  7.53D-01  7.00D-01  8.09D-01
                    CP:  7.91D-01  8.60D-01  8.04D-01  8.28D-01  8.75D-01
                    CP:  8.18D-01
 E= -739.084545672287     Delta-E=       -0.000000000073 Rises=F Damp=F
 DIIS: error= 9.76D-08 at cycle  12 NSaved=  12.
 NSaved=12 IEnMin=12 EnMin= -739.084545672287     IErMin=12 ErrMin= 9.76D-08
 ErrMax= 9.76D-08 EMaxC= 1.00D-01 BMatC= 1.00D-11 BMatP= 8.68D-11
 IDIUse=1 WtCom= 1.00D+00 WtEn= 0.00D+00
 Coeff-Com: -0.146D-06 0.238D-05 0.985D-05 0.319D-04 0.382D-04-0.414D-03
 Coeff-Com: -0.253D-02-0.750D-02-0.756D-02 0.514D-01 0.300D+00 0.666D+00
 Coeff:     -0.146D-06 0.238D-05 0.985D-05 0.319D-04 0.382D-04-0.414D-03
 Coeff:     -0.253D-02-0.750D-02-0.756D-02 0.514D-01 0.300D+00 0.666D+00
 Gap=     0.208 Goal=   None    Shift=    0.000
 RMSDP=1.00D-08 MaxDP=5.87D-07 DE=-7.32D-11 OVMax= 1.22D-06

 Cycle  13  Pass 1  IDiag  1:
 RMSU=  5.34D-09    CP:  9.77D-01  9.23D-01  7.53D-01  7.00D-01  8.09D-01
                    CP:  7.91D-01  8.60D-01  8.04D-01  8.32D-01  8.83D-01
                    CP:  8.81D-01  8.26D-01
 E= -739.084545672295     Delta-E=       -0.000000000008 Rises=F Damp=F
 DIIS: error= 3.12D-08 at cycle  13 NSaved=  13.
 NSaved=13 IEnMin=13 EnMin= -739.084545672295     IErMin=13 ErrMin= 3.12D-08
 ErrMax= 3.12D-08 EMaxC= 1.00D-01 BMatC= 7.94D-13 BMatP= 1.00D-11
 IDIUse=1 WtCom= 1.00D+00 WtEn= 0.00D+00
 Coeff-Com: -0.626D-07-0.958D-06 0.123D-05 0.125D-04 0.896D-04 0.107D-03
 Coeff-Com: -0.933D-05-0.206D-02-0.914D-02-0.146D-01 0.270D-01 0.232D+00
 Coeff-Com:  0.767D+00
 Coeff:     -0.626D-07-0.958D-06 0.123D-05 0.125D-04 0.896D-04 0.107D-03
 Coeff:     -0.933D-05-0.206D-02-0.914D-02-0.146D-01 0.270D-01 0.232D+00
 Coeff:      0.767D+00
 Gap=     0.208 Goal=   None    Shift=    0.000
 RMSDP=3.58D-09 MaxDP=1.51D-07 DE=-7.96D-12 OVMax= 6.13D-07

 Error on total polarization charges =  0.00752
 SCF Done:  E(RM06) =  -739.084545672     A.U. after   13 cycles
             Convg  =    0.3577D-08             -V/T =  2.0007
 KE= 7.386015513657D+02 PE=-4.296073490411D+03 EE= 1.521993195448D+03
 Leave Link  502 at Tue Dec 03 15:57:50 2013, MaxMem= 2147483648 cpu:     549.0
 (Enter C:\G09W\l601.exe)
 Copying SCF densities to generalized density rwf, IOpCl= 0 IROHF=0.

 **********************************************************************

            Population analysis using the SCF density.

 **********************************************************************

 Orbital symmetries:
       Occupied  (A) (A) (A) (A) (A) (A) (A) (A) (A) (A) (A) (A)
                 (A) (A) (A) (A) (A) (A) (A) (A) (A) (A) (A) (A)
                 (A) (A) (A) (A) (A) (A) (A) (A) (A) (A) (A) (A)
                 (A) (A) (A) (A) (A) (A) (A) (A) (A) (A) (A) (A)
                 (A) (A) (A) (A) (A) (A) (A) (A) (A) (A) (A) (A)
                 (A) (A) (A) (A)
       Virtual   (A) (A) (A) (A) (A) (A) (A) (A) (A) (A) (A) (A)
                 (A) (A) (A) (A) (A) (A) (A) (A) (A) (A) (A) (A)
                 (A) (A) (A) (A) (A) (A) (A) (A) (A) (A) (A) (A)
                 (A) (A) (A) (A) (A) (A) (A) (A) (A) (A) (A) (A)
                 (A) (A) (A) (A) (A) (A) (A) (A) (A) (A) (A) (A)
                 (A) (A) (A) (A) (A) (A) (A) (A) (A) (A) (A) (A)
                 (A) (A) (A) (A) (A) (A) (A) (A) (A) (A) (A) (A)
                 (A) (A) (A) (A) (A) (A) (A) (A) (A) (A) (A) (A)
                 (A) (A) (A) (A) (A) (A) (A) (A) (A) (A) (A) (A)
                 (A) (A) (A) (A) (A) (A) (A) (A) (A) (A) (A) (A)
                 (A) (A) (A) (A) (A) (A) (A) (A) (A) (A) (A) (A)
                 (A) (A) (A) (A) (A) (A) (A) (A) (A) (A) (A) (A)
                 (A) (A) (A) (A) (A) (A) (A) (A) (A) (A) (A) (A)
                 (A) (A) (A) (A) (A) (A) (A) (A) (A) (A) (A) (A)
                 (A) (A) (A) (A) (A) (A) (A) (A) (A) (A) (A) (A)
                 (A) (A) (A) (A) (A) (A) (A) (A) (A) (A) (A) (A)
                 (A) (A) (A) (A) (A) (A) (A) (A) (A) (A) (A) (A)
                 (A) (A) (A) (A) (A) (A) (A) (A) (A) (A) (A) (A)
                 (A) (A) (A) (A) (A) (A) (A) (A) (A) (A) (A) (A)
                 (A) (A) (A) (A) (A) (A) (A) (A) (A) (A) (A) (A)
                 (A) (A) (A) (A) (A) (A) (A) (A) (A) (A) (A) (A)
                 (A) (A) (A) (A) (A) (A) (A) (A) (A) (A) (A) (A)
                 (A) (A) (A) (A) (A) (A) (A) (A) (A) (A) (A) (A)
                 (A) (A) (A) (A) (A) (A) (A) (A) (A) (A) (A) (A)
                 (A)
 The electronic state is 1-A.
 Alpha  occ. eigenvalues --  -24.80751 -14.56786 -10.37406 -10.37209 -10.36553
 Alpha  occ. eigenvalues --  -10.35177 -10.33300 -10.32488 -10.32150 -10.27905
 Alpha  occ. eigenvalues --  -10.26677 -10.26217 -10.25885 -10.25585 -10.21481
 Alpha  occ. eigenvalues --  -10.21376 -10.21294  -1.25631  -1.10220  -0.93646
 Alpha  occ. eigenvalues --   -0.90481  -0.88469  -0.86307  -0.81695  -0.80461
 Alpha  occ. eigenvalues --   -0.75946  -0.74964  -0.74241  -0.73945  -0.70907
 Alpha  occ. eigenvalues --   -0.69289  -0.65615  -0.63068  -0.60423  -0.59882
 Alpha  occ. eigenvalues --   -0.58083  -0.57519  -0.55747  -0.54769  -0.54598
 Alpha  occ. eigenvalues --   -0.53051  -0.51773  -0.49785  -0.48990  -0.48072
 Alpha  occ. eigenvalues --   -0.47580  -0.47395  -0.46888  -0.46374  -0.45525
 Alpha  occ. eigenvalues --   -0.44422  -0.42918  -0.42220  -0.41798  -0.41274
 Alpha  occ. eigenvalues --   -0.40703  -0.40361  -0.38404  -0.37985  -0.36715
 Alpha  occ. eigenvalues --   -0.36036  -0.34071  -0.33960  -0.33047
 Alpha virt. eigenvalues --   -0.12241  -0.08693   0.03540   0.04162   0.04713
 Alpha virt. eigenvalues --    0.06110   0.06681   0.07393   0.08317   0.08464
 Alpha virt. eigenvalues --    0.08998   0.09428   0.09931   0.10489   0.10839
 Alpha virt. eigenvalues --    0.11710   0.12630   0.12957   0.13498   0.13768
 Alpha virt. eigenvalues --    0.14675   0.15630   0.16222   0.17079   0.17388
 Alpha virt. eigenvalues --    0.18138   0.18519   0.19615   0.19761   0.20098
 Alpha virt. eigenvalues --    0.21179   0.21943   0.22704   0.22976   0.23807
 Alpha virt. eigenvalues --    0.23936   0.24127   0.25133   0.25730   0.27150
 Alpha virt. eigenvalues --    0.28089   0.29294   0.32866   0.33997   0.36604
 Alpha virt. eigenvalues --    0.38075   0.38382   0.38996   0.40726   0.41025
 Alpha virt. eigenvalues --    0.41613   0.42121   0.43191   0.43851   0.45283
 Alpha virt. eigenvalues --    0.45819   0.46344   0.46805   0.47370   0.48083
 Alpha virt. eigenvalues --    0.48794   0.49997   0.51845   0.52611   0.53633
 Alpha virt. eigenvalues --    0.54376   0.55117   0.56740   0.57634   0.58232
 Alpha virt. eigenvalues --    0.58386   0.59192   0.60090   0.60483   0.60666
 Alpha virt. eigenvalues --    0.61258   0.62062   0.62645   0.62757   0.63992
 Alpha virt. eigenvalues --    0.64197   0.64999   0.65340   0.66059   0.66835
 Alpha virt. eigenvalues --    0.67027   0.67414   0.68076   0.68871   0.69076
 Alpha virt. eigenvalues --    0.70043   0.70283   0.71500   0.72023   0.72367
 Alpha virt. eigenvalues --    0.73175   0.73897   0.74348   0.74759   0.75397
 Alpha virt. eigenvalues --    0.76124   0.77785   0.78811   0.80315   0.80759
 Alpha virt. eigenvalues --    0.81679   0.82218   0.83692   0.85236   0.86389
 Alpha virt. eigenvalues --    0.87070   0.88000   0.88325   0.89033   0.91110
 Alpha virt. eigenvalues --    0.91811   0.91983   0.93803   0.94361   0.97729
 Alpha virt. eigenvalues --    0.98843   1.01101   1.02879   1.03118   1.04347
 Alpha virt. eigenvalues --    1.06385   1.07673   1.10234   1.12151   1.13931
 Alpha virt. eigenvalues --    1.14196   1.16412   1.16767   1.19896   1.21435
 Alpha virt. eigenvalues --    1.23394   1.25616   1.27501   1.28201   1.29775
 Alpha virt. eigenvalues --    1.31384   1.32175   1.33548   1.35180   1.36538
 Alpha virt. eigenvalues --    1.38181   1.39663   1.40466   1.41522   1.42155
 Alpha virt. eigenvalues --    1.42996   1.43667   1.44174   1.44368   1.45777
 Alpha virt. eigenvalues --    1.45897   1.47793   1.48701   1.49308   1.50812
 Alpha virt. eigenvalues --    1.51072   1.51229   1.53284   1.54538   1.55041
 Alpha virt. eigenvalues --    1.55994   1.56524   1.58357   1.59321   1.59771
 Alpha virt. eigenvalues --    1.60502   1.61146   1.61978   1.62232   1.63096
 Alpha virt. eigenvalues --    1.64430   1.65513   1.65862   1.67182   1.67560
 Alpha virt. eigenvalues --    1.68826   1.69413   1.69682   1.70358   1.71473
 Alpha virt. eigenvalues --    1.72456   1.73162   1.74173   1.75022   1.75401
 Alpha virt. eigenvalues --    1.76990   1.77335   1.78280   1.78890   1.79518
 Alpha virt. eigenvalues --    1.79849   1.80158   1.81571   1.82230   1.82496
 Alpha virt. eigenvalues --    1.83704   1.83750   1.84758   1.85760   1.86883
 Alpha virt. eigenvalues --    1.87153   1.90578   1.91366   1.92787   1.93485
 Alpha virt. eigenvalues --    1.94395   1.95443   1.95884   1.97057   1.97107
 Alpha virt. eigenvalues --    1.98835   2.00641   2.01668   2.02540   2.03175
 Alpha virt. eigenvalues --    2.03934   2.06025   2.07203   2.07688   2.09397
 Alpha virt. eigenvalues --    2.10231   2.11095   2.11751   2.13575   2.14413
 Alpha virt. eigenvalues --    2.15846   2.17087   2.18323   2.18839   2.19907
 Alpha virt. eigenvalues --    2.21116   2.22674   2.26128   2.29525   2.31101
 Alpha virt. eigenvalues --    2.34392   2.34993   2.35896   2.38159   2.40227
 Alpha virt. eigenvalues --    2.42644   2.46522   2.48435   2.49168   2.50808
 Alpha virt. eigenvalues --    2.53832   2.54734   2.56098   2.56897   2.59287
 Alpha virt. eigenvalues --    2.59971   2.63180   2.63876   2.66015   2.68376
 Alpha virt. eigenvalues --    2.70235   2.70371   2.70694   2.72562   2.72843
 Alpha virt. eigenvalues --    2.74768   2.76047   2.76909   2.77122   2.77903
 Alpha virt. eigenvalues --    2.79531   2.80704   2.82623   2.83790   2.84460
 Alpha virt. eigenvalues --    2.84814   2.86559   2.87392   2.89127   2.93607
 Alpha virt. eigenvalues --    2.97233   3.03539   3.12026   3.61926   3.62524
 Alpha virt. eigenvalues --    3.69338   3.80572   3.83979   4.05556
          Condensed to atoms (all electrons):
              1          2          3          4          5          6
     1  H    0.725237   0.000000   0.000000   0.000000   0.000000   0.000000
     2  C    0.000000   4.355323   0.391263   0.384351  -0.048156  -0.005379
     3  H    0.000000   0.391263   0.686798  -0.029113  -0.007101   0.003594
     4  H    0.000000   0.384351  -0.029113   0.696961  -0.004836  -0.000878
     5  C    0.000000  -0.048156  -0.007101  -0.004836   4.373694   0.388264
     6  H    0.000000  -0.005379   0.003594  -0.000878   0.388264   0.677992
     7  H    0.000000   0.008106   0.000294   0.000274   0.388438  -0.026462
     8  H    0.000000  -0.005438  -0.001294   0.004495   0.389399  -0.027044
     9  C    0.000000   0.424717  -0.010923  -0.007919   0.418423  -0.008335
    10  C    0.000000  -0.047123   0.008620  -0.014337  -0.061338   0.009434
    11  H    0.000000  -0.008630   0.000052  -0.001731   0.011192  -0.000727
    12  C    0.000000  -0.000093  -0.000567   0.012002  -0.009210   0.000068
    13  H    0.000000  -0.004558   0.000044  -0.001428   0.003950  -0.000970
    14  H    0.000000   0.004872  -0.000071   0.000854  -0.000505   0.000036
    15  C   -0.000001   0.000568  -0.000037   0.000451   0.000031   0.000015
    16  H   -0.000001   0.000052   0.000002   0.000032  -0.000121   0.000005
    17  H    0.000001  -0.000011   0.000000   0.000025  -0.000003   0.000000
    18  C    0.000003  -0.000237   0.000013  -0.000025   0.000561  -0.000021
    19  H   -0.000002   0.000011   0.000000   0.000001  -0.000011  -0.000001
    20  F    0.000000   0.000000   0.000000   0.000000   0.000002   0.000000
    21  C    0.000050  -0.000033  -0.000003   0.000012   0.000012  -0.000001
    22  H   -0.000004   0.000072   0.000001   0.000010  -0.000031   0.000000
    23  C    0.000000   0.006804  -0.000361   0.000415  -0.005884  -0.000181
    24  H    0.000000   0.000320  -0.000036   0.000049  -0.003507   0.000028
    25  H    0.000000   0.000007  -0.000004  -0.000103   0.007070  -0.000477
    26  C    0.012963   0.000000   0.000000   0.000000   0.000000   0.000000
    27  H   -0.000379   0.000000   0.000000   0.000000   0.000000   0.000000
    28  N   -0.000332   0.000000   0.000000   0.000000   0.000000   0.000000
    29  C    0.000000  -0.041196  -0.005146   0.008014  -0.047547  -0.006368
    30  H    0.000000  -0.005759  -0.001568   0.000422   0.008249   0.000361
    31  H    0.000000   0.008602   0.000572  -0.001015  -0.005907  -0.001273
    32  H    0.000000  -0.006287   0.003452   0.000355  -0.004771   0.003377
    33  H    0.000000   0.389110  -0.030384  -0.033027   0.008703   0.000339
    34  C    0.013005   0.000000   0.000000   0.000000   0.000000   0.000000
    35  C   -0.050351   0.000000   0.000000   0.000000   0.000000   0.000000
    36  H   -0.022044   0.000000   0.000000   0.000000   0.000000   0.000000
    37  C    0.414008   0.000000   0.000000   0.000000   0.000000   0.000000
    38  C   -0.053474   0.000000   0.000000   0.000000   0.000000   0.000000
    39  H   -0.019911   0.000000   0.000000   0.000000   0.000000   0.000000
    40  H   -0.000292   0.000000   0.000000   0.000000   0.000000   0.000000
              7          8          9         10         11         12
     1  H    0.000000   0.000000   0.000000   0.000000   0.000000   0.000000
     2  C    0.008106  -0.005438   0.424717  -0.047123  -0.008630  -0.000093
     3  H    0.000294  -0.001294  -0.010923   0.008620   0.000052  -0.000567
     4  H    0.000274   0.004495  -0.007919  -0.014337  -0.001731   0.012002
     5  C    0.388438   0.389399   0.418423  -0.061338   0.011192  -0.009210
     6  H   -0.026462  -0.027044  -0.008335   0.009434  -0.000727   0.000068
     7  H    0.691147  -0.034115  -0.012743  -0.011000   0.000353  -0.000520
     8  H   -0.034115   0.696945  -0.016001  -0.004070   0.000142   0.000205
     9  C   -0.012743  -0.016001   5.043484   0.378059  -0.019493  -0.035926
    10  C   -0.011000  -0.004070   0.378059   4.889318   0.334717   0.389674
    11  H    0.000353   0.000142  -0.019493   0.334717   0.829876  -0.032948
    12  C   -0.000520   0.000205  -0.035926   0.389674  -0.032948   4.535006
    13  H    0.000174   0.004792  -0.007895  -0.016147   0.015754   0.355726
    14  H   -0.000144  -0.000151  -0.005176   0.003415  -0.024918   0.358846
    15  C    0.000086  -0.000480   0.005703  -0.049200  -0.002744   0.417004
    16  H   -0.000078  -0.000166   0.000438  -0.010971  -0.002002  -0.000169
    17  H    0.000002   0.000037  -0.000239   0.005420   0.000589   0.009528
    18  C    0.000254  -0.000003   0.003728  -0.021985  -0.002934  -0.025756
    19  H    0.000028  -0.000013  -0.000341   0.005584   0.001180   0.000491
    20  F   -0.000011   0.000000  -0.000053  -0.001021   0.008135  -0.000161
[...]
    10  C   -0.057073  -0.045915   0.018193  -0.002739   0.005399   0.016205
    11  H    0.003370  -0.006731   0.002497   0.000047  -0.000205  -0.004180
    12  C    0.436258   0.428576   0.225410  -0.023527  -0.016475  -0.006442
    13  H    0.435240  -0.008588  -0.042373  -0.003994  -0.000881  -0.000998
    14  H   -0.008588   0.452841  -0.027388   0.004071  -0.004939  -0.000016
    15  C   -0.042373  -0.027388   5.412174   0.423264   0.421413   0.006823
    16  H   -0.003994   0.004071   0.423264   0.472645  -0.020247   0.000850
    17  H   -0.000881  -0.004939   0.421413  -0.020247   0.470513   0.003183
    18  C   -0.000998  -0.000016   0.006823   0.000850   0.003183   4.885020
    19  H    0.000052  -0.000020   0.010851   0.000555  -0.000220   0.469512
    20  F   -0.000004  -0.000001   0.007232   0.000138  -0.000142   0.278294
    21  C    0.009533  -0.003775   0.033744  -0.047717  -0.042163   0.158064
    22  H    0.000314   0.003021  -0.018719   0.004958  -0.002806  -0.022538
    23  C    0.003873   0.006983  -0.061752  -0.004831   0.000137   0.211260
    24  H   -0.000066  -0.000178  -0.003438  -0.000043   0.000093  -0.032435
    25  H    0.000500   0.000073  -0.005396   0.002200   0.000162  -0.016162
    26  C    0.000039  -0.000038  -0.012020  -0.003615  -0.000839  -0.003828
    27  H   -0.000028   0.000014   0.001699   0.003457  -0.002430  -0.001862
    28  N   -0.000123  -0.000181  -0.034875  -0.005381  -0.000460  -0.028835
    29  C    0.000262  -0.000183  -0.000454   0.000014   0.000013   0.000432
    30  H   -0.000011  -0.000057  -0.000039  -0.000001   0.000001  -0.000059
    31  H   -0.000009   0.000013   0.000026   0.000004  -0.000001   0.000515
    32  H   -0.000020  -0.000008   0.000021   0.000000   0.000000   0.000019
    33  H    0.000289   0.001722  -0.000364  -0.000003  -0.000009  -0.000110
    34  C    0.000020  -0.000046   0.003188  -0.001104   0.000347  -0.013423
    35  C   -0.000001  -0.000001  -0.000604   0.000075  -0.000098   0.000183
    36  H    0.000000   0.000000   0.000002   0.000000  -0.000001   0.000030
    37  C    0.000000  -0.000001  -0.000058  -0.000108   0.000028  -0.000446
    38  C   -0.000001   0.000005   0.000964   0.000961  -0.000488   0.001228
    39  H    0.000000   0.000000   0.000033   0.000022   0.000000   0.000025
    40  H    0.000004  -0.000037   0.002069  -0.000049   0.000014  -0.003752
             19         20         21         22         23         24
     1  H   -0.000004   0.000000   0.000028  -0.000002   0.000000   0.000000
     2  C    0.000019   0.000005  -0.000307  -0.000064   0.007459   0.000307
     3  H    0.000000   0.000000   0.000007  -0.000002  -0.000387  -0.000024
     4  H   -0.000001   0.000000  -0.000049  -0.000013  -0.000478   0.000016
     5  C    0.000061   0.000009  -0.000064   0.000041  -0.002297  -0.001901
     6  H   -0.000002   0.000000   0.000006   0.000000  -0.000133  -0.000133
     7  H   -0.000004  -0.000014   0.000007  -0.000009   0.002248  -0.000551
     8  H   -0.000004   0.000001   0.000009   0.000006  -0.002200   0.000151
     9  C   -0.000192  -0.000196  -0.001658   0.000352  -0.037236  -0.002469
    10  C    0.011018   0.006166  -0.076690  -0.004323   0.079414  -0.050630
    11  H    0.001141   0.006894  -0.008188   0.005359  -0.036030  -0.001214
    12  C   -0.000554  -0.000670  -0.008249  -0.000272  -0.032349   0.007208
    13  H    0.000052  -0.000004   0.009533   0.000314   0.003873  -0.000066
    14  H   -0.000020  -0.000001  -0.003775   0.003021   0.006983  -0.000178
    15  C    0.010851   0.007232   0.033744  -0.018719  -0.061752  -0.003438
    16  H    0.000555   0.000138  -0.047717   0.004958  -0.004831  -0.000043
    17  H   -0.000220  -0.000142  -0.042163  -0.002806   0.000137   0.000093
    18  C    0.469512   0.278294   0.158064  -0.022538   0.211260  -0.032435
    19  H    0.480000  -0.026557  -0.062073   0.003578  -0.070897  -0.002575
    20  F   -0.026557   9.054086  -0.040779  -0.005523  -0.055534   0.007070
    21  C   -0.062073  -0.040779   5.647760   0.408626   0.051070   0.011992
    22  H    0.003578  -0.005523   0.408626   0.431897  -0.005191   0.000013
    23  C   -0.070897  -0.055534   0.051070  -0.005191   5.551068   0.410307
    24  H   -0.002575   0.007070   0.011992   0.000013   0.410307   0.440163
    25  H    0.000096   0.002328  -0.002448   0.000696   0.399627  -0.002582
    26  C    0.002469  -0.000904  -0.046351   0.005556  -0.001354  -0.000014
    27  H   -0.000361  -0.000015   0.002431   0.000430  -0.000229   0.000008
    28  N   -0.009181  -0.003007   0.208637  -0.028911   0.006282  -0.000224
    29  C   -0.000054  -0.000085  -0.000030  -0.000052  -0.011951   0.002740
    30  H   -0.000002  -0.000002   0.000002  -0.000006  -0.000717   0.000144
    31  H    0.000034  -0.000186  -0.000122   0.000000   0.000710   0.002018
    32  H   -0.000001  -0.000001   0.000005  -0.000001   0.000089  -0.000297
    33  H   -0.000001  -0.000006   0.000152  -0.000021   0.000940  -0.000007
    34  C   -0.003704   0.007790  -0.049393  -0.012691   0.002628  -0.000048
    35  C    0.000267   0.000092   0.003517   0.000548   0.000024   0.000001
    36  H    0.000004  -0.000015  -0.000197  -0.000010   0.000000   0.000000
    37  C   -0.000323   0.000027  -0.001894  -0.000340   0.000006   0.000001
    38  C    0.001299  -0.000046   0.001718   0.000578  -0.000144  -0.000002
    39  H    0.000035   0.000000  -0.000205   0.000015  -0.000001   0.000000
    40  H    0.001116   0.007836   0.007931   0.001232  -0.000089  -0.000048
             25         26         27         28         29         30
     1  H    0.000000   0.006729  -0.000127  -0.000405   0.000000   0.000000
     2  C   -0.000120   0.000000   0.000000   0.000000  -0.081955  -0.010093
     3  H   -0.000016   0.000000   0.000000   0.000000  -0.009671  -0.000523
     4  H   -0.000012   0.000000   0.000000   0.000000   0.008506  -0.000002
     5  C    0.000252   0.000000   0.000000   0.000001  -0.078770   0.009598
     6  H    0.000062   0.000000   0.000000   0.000000  -0.009321  -0.000067
     7  H   -0.003386   0.000000   0.000000   0.000000  -0.007727   0.000070
     8  H    0.000592   0.000000   0.000000   0.000000   0.007938  -0.000335
     9  C   -0.003610  -0.000001  -0.000001   0.000000   0.327742  -0.026875
    10  C   -0.055897   0.000190   0.000119   0.000683  -0.096104  -0.012394
    11  H    0.004973   0.000035  -0.000020   0.000006  -0.006330   0.004495
    12  C    0.006666   0.000512  -0.000027   0.001699   0.007703   0.000507
    13  H    0.000500   0.000039  -0.000028  -0.000123   0.000262  -0.000011
    14  H    0.000073  -0.000038   0.000014  -0.000181  -0.000183  -0.000057
    15  C   -0.005396  -0.012020   0.001699  -0.034875  -0.000454  -0.000039
    16  H    0.002200  -0.003615   0.003457  -0.005381   0.000014  -0.000001
    17  H    0.000162  -0.000839  -0.002430  -0.000460   0.000013   0.000001
    18  C   -0.016162  -0.003828  -0.001862  -0.028835   0.000432  -0.000059
    19  H    0.000096   0.002469  -0.000361  -0.009181  -0.000054  -0.000002
    20  F    0.002328  -0.000904  -0.000015  -0.003007  -0.000085  -0.000002
    21  C   -0.002448  -0.046351   0.002431   0.208637  -0.000030   0.000002
    22  H    0.000696   0.005556   0.000430  -0.028911  -0.000052  -0.000006
    23  C    0.399627  -0.001354  -0.000229   0.006282  -0.011951  -0.000717
    24  H   -0.002582  -0.000014   0.000008  -0.000224   0.002740   0.000144
    25  H    0.458424   0.000101  -0.000084  -0.000168   0.000837  -0.000097
    26  C    0.000101   5.016159   0.406306   0.423139   0.000000   0.000000
    27  H   -0.000084   0.406306   0.430226  -0.036615   0.000000   0.000000
    28  N   -0.000168   0.423139  -0.036615   6.140487  -0.000001  -0.000001
    29  C    0.000837   0.000000   0.000000  -0.000001   5.249325   0.398723
    30  H   -0.000097   0.000000   0.000000  -0.000001   0.398723   0.498137
    31  H    0.000187   0.000000   0.000000   0.000001   0.402701  -0.021936
    32  H   -0.000026   0.000000   0.000000   0.000000   0.401388  -0.016208
    33  H   -0.000005   0.000000   0.000000   0.000000  -0.009230   0.002462
    34  C   -0.000141  -0.084474   0.003012   0.443589   0.000001   0.000000
    35  C   -0.000004  -0.017293  -0.001051  -0.032933   0.000000   0.000000
    36  H    0.000000  -0.000090   0.000043   0.001950   0.000000   0.000000
    37  C    0.000001  -0.061552   0.003990  -0.011106   0.000000   0.000000
    38  C    0.000003   0.438976  -0.015457  -0.035424   0.000000   0.000000
    39  H    0.000000  -0.041305  -0.001553   0.001699   0.000000   0.000000
    40  H   -0.000015   0.003456  -0.000163  -0.039411   0.000000   0.000000
             31         32         33         34         35         36
     1  H    0.000000   0.000000   0.000000   0.005801  -0.041812  -0.004754
     2  C    0.009092  -0.012375   0.402840  -0.000001   0.000000   0.000000
     3  H    0.000177   0.002886  -0.012991   0.000000   0.000000   0.000000
     4  H   -0.000324   0.000067  -0.024763   0.000000   0.000000   0.000000
     5  C   -0.010099  -0.009496   0.009059   0.000000   0.000000   0.000000
     6  H   -0.000129   0.002144   0.000096   0.000000   0.000000   0.000000
     7  H    0.002252  -0.000376  -0.000326   0.000000   0.000000   0.000000
     8  H   -0.000059  -0.000015  -0.000158   0.000000   0.000000   0.000000
     9  C   -0.027942  -0.026470  -0.044650   0.000001   0.000000   0.000000
    10  C   -0.010658   0.013395   0.003709  -0.000250  -0.000021   0.000000
    11  H   -0.000670   0.000195   0.002724  -0.000345  -0.000008   0.000000
    12  C   -0.000378  -0.000420  -0.006976  -0.000549   0.000022   0.000000
    13  H   -0.000009  -0.000020   0.000289   0.000020  -0.000001   0.000000
    14  H    0.000013  -0.000008   0.001722  -0.000046  -0.000001   0.000000
    15  C    0.000026   0.000021  -0.000364   0.003188  -0.000604   0.000002
    16  H    0.000004   0.000000  -0.000003  -0.001104   0.000075   0.000000
    17  H   -0.000001   0.000000  -0.000009   0.000347  -0.000098  -0.000001
    18  C    0.000515   0.000019  -0.000110  -0.013423   0.000183   0.000030
    19  H    0.000034  -0.000001  -0.000001  -0.003704   0.000267   0.000004
    20  F   -0.000186  -0.000001  -0.000006   0.007790   0.000092  -0.000015
    21  C   -0.000122   0.000005   0.000152  -0.049393   0.003517  -0.000197
    22  H    0.000000  -0.000001  -0.000021  -0.012691   0.000548  -0.000010
    23  C    0.000710   0.000089   0.000940   0.002628   0.000024   0.000000
    24  H    0.002018  -0.000297  -0.000007  -0.000048   0.000001   0.000000
    25  H    0.000187  -0.000026  -0.000005  -0.000141  -0.000004   0.000000
    26  C    0.000000   0.000000   0.000000  -0.084474  -0.017293  -0.000090
    27  H    0.000000   0.000000   0.000000   0.003012  -0.001051   0.000043
    28  N    0.000001   0.000000   0.000000   0.443589  -0.032933   0.001950
    29  C    0.402701   0.401388  -0.009230   0.000001   0.000000   0.000000
    30  H   -0.021936  -0.016208   0.002462   0.000000   0.000000   0.000000
    31  H    0.498090  -0.016747  -0.000129   0.000000   0.000000   0.000000
    32  H   -0.016747   0.483881  -0.000290   0.000000   0.000000   0.000000
    33  H   -0.000129  -0.000290   0.502358   0.000000   0.000000   0.000000
    34  C    0.000000   0.000000   0.000000   4.932101   0.448148  -0.037737
    35  C    0.000000   0.000000   0.000000   0.448148   4.913001   0.436470
    36  H    0.000000   0.000000   0.000000  -0.037737   0.436470   0.488780
    37  C    0.000000   0.000000   0.000000  -0.062259   0.419457  -0.032256
    38  C    0.000000   0.000000   0.000000  -0.010849  -0.038310   0.004364
    39  H    0.000000   0.000000   0.000000   0.000069   0.004339  -0.000126
    40  H    0.000001   0.000000   0.000000   0.408190  -0.024960  -0.002751
             37         38         39         40
     1  H    0.443926  -0.041844  -0.004769  -0.000115
     2  C    0.000000   0.000000   0.000000   0.000000
     3  H    0.000000   0.000000   0.000000   0.000000
     4  H    0.000000   0.000000   0.000000   0.000000
     5  C    0.000000   0.000000   0.000000   0.000000
     6  H    0.000000   0.000000   0.000000   0.000000
     7  H    0.000000   0.000000   0.000000   0.000000
     8  H    0.000000   0.000000   0.000000   0.000000
     9  C    0.000000   0.000000   0.000000   0.000000
    10  C    0.000002   0.000009   0.000000   0.000011
    11  H   -0.000001   0.000004   0.000000   0.000214
    12  C   -0.000004  -0.000011  -0.000002  -0.000080
    13  H    0.000000  -0.000001   0.000000   0.000004
    14  H   -0.000001   0.000005   0.000000  -0.000037
    15  C   -0.000058   0.000964   0.000033   0.002069
    16  H   -0.000108   0.000961   0.000022  -0.000049
    17  H    0.000028  -0.000488   0.000000   0.000014
    18  C   -0.000446   0.001228   0.000025  -0.003752
    19  H   -0.000323   0.001299   0.000035   0.001116
    20  F    0.000027  -0.000046   0.000000   0.007836
    21  C   -0.001894   0.001718  -0.000205   0.007931
    22  H   -0.000340   0.000578   0.000015   0.001232
    23  C    0.000006  -0.000144  -0.000001  -0.000089
    24  H    0.000001  -0.000002   0.000000  -0.000048
    25  H    0.000001   0.000003   0.000000  -0.000015
    26  C   -0.061552   0.438976  -0.041305   0.003456
    27  H    0.003990  -0.015457  -0.001553  -0.000163
    28  N   -0.011106  -0.035424   0.001699  -0.039411
    29  C    0.000000   0.000000   0.000000   0.000000
    30  H    0.000000   0.000000   0.000000   0.000000
    31  H    0.000000   0.000000   0.000000   0.000001
    32  H    0.000000   0.000000   0.000000   0.000000
    33  H    0.000000   0.000000   0.000000   0.000000
    34  C   -0.062259  -0.010849   0.000069   0.408190
    35  C    0.419457  -0.038310   0.004339  -0.024960
    36  H   -0.032256   0.004364  -0.000126  -0.002751
    37  C    4.908734   0.427891  -0.029649   0.003329
    38  C    0.427891   4.911370   0.437507  -0.000677
    39  H   -0.029649   0.437507   0.486452   0.000040
    40  H    0.003329  -0.000677   0.000040   0.457986
 Mulliken atomic charges:
              1
     1  H    0.142912
     2  C   -0.496065
     3  H    0.180370
     4  H    0.171401
     5  C   -0.512425
     6  H    0.184138
     7  H    0.171080
     8  H    0.176172
     9  C   -0.019239
    10  C   -0.166932
    11  H    0.251485
    12  C   -0.451278
    13  H    0.223354
    14  H    0.210372
    15  C   -0.367984
    16  H    0.199421
    17  H    0.191231
    18  C    0.104940
    19  H    0.194624
    20  F   -0.244279
    21  C   -0.152892
    22  H    0.234272
    23  C   -0.410323
    24  H    0.216648
    25  H    0.212387
    26  C   -0.029987
    27  H    0.208288
    28  N    0.039067
    29  C   -0.496407
    30  H    0.175285
    31  H    0.173568
    32  H    0.178660
    33  H    0.173689
    34  C    0.022128
    35  C   -0.069047
    36  H    0.146294
    37  C   -0.007395
    38  C   -0.083627
    39  H    0.147375
    40  H    0.178721
 Sum of Mulliken atomic charges =   1.00000
 Mulliken charges with hydrogens summed into heavy atoms:
              1
     2  C    0.029395
     5  C    0.018966
     9  C   -0.019239
    10  C    0.084552
    12  C   -0.017552
    15  C    0.022667
    18  C    0.299564
    20  F   -0.244279
    21  C    0.081380
    23  C    0.018712
    26  C    0.178301
    28  N    0.039067
    29  C    0.031105
    34  C    0.200849
    35  C    0.077247
    37  C    0.135517
    38  C    0.063748
 Sum of Mulliken charges with hydrogens summed into heavy atoms =   1.00000
 Electronic spatial extent (au):  <R**2>=           5314.4739
 Charge=              1.0000 electrons
 Dipole moment (field-independent basis, Debye):
    X=             10.1975    Y=             -2.1138    Z=              0.1248  Tot=             10.4150
 Quadrupole moment (field-independent basis, Debye-Ang):
   XX=            -33.7778   YY=            -96.3717   ZZ=            -96.1533
   XY=             -1.3020   XZ=              1.0864   YZ=              5.3126
 Traceless Quadrupole moment (field-independent basis, Debye-Ang):
   XX=             41.6565   YY=            -20.9374   ZZ=            -20.7191
   XY=             -1.3020   XZ=              1.0864   YZ=              5.3126
 Octapole moment (field-independent basis, Debye-Ang**2):
  XXX=            255.1639  YYY=             -0.4336  ZZZ=             -1.9907  XYY=             25.1017
  XXY=              5.4583  XXZ=              0.4378  XZZ=             12.6658  YZZ=              7.7225
  YYZ=             -0.0727  XYZ=             23.1441
 Hexadecapole moment (field-independent basis, Debye-Ang**3):
 XXXX=          -4117.4585 YYYY=           -791.7859 ZZZZ=           -489.2434 XXXY=              3.9321
 XXXZ=             -7.2845 YYYX=             -0.2585 YYYZ=             18.2979 ZZZX=              2.0625
 ZZZY=              3.9978 XXYY=          -1017.0607 XXZZ=          -1036.4348 YYZZ=           -198.6329
 XXYZ=             89.3431 YYXZ=              2.4374 ZZXY=              1.7951
 N-N= 1.282363737572D+03 E-N=-4.265651533398D+03  KE= 7.335892155298D+02
 Calculating spin-rotation constants.
 Leave Link  601 at Tue Dec 10 14:22:20 2013, MaxMem= 2147483648 cpu:     112.0
 (Enter C:\G09W\l9999.exe)

 Test job not archived.
 1|1|UNPC-IMOEN|SP|RM06|Gen|C15H23F1N1(1+)|ZENAWI|10-Dec-2013|0||#P Geo
 m=AllCheck Guess=TCheck SCRF=Check GenChk RM06/ChkBas NMR=ReadFC IOp(3
 /6=22)||Magnetic spinspin||1,1|H,0,20.574113914,9.2217129837,16.276984
 48|C,0,25.6794294351,9.0850282639,7.32496058|H,0,26.3871808684,8.95462
 20668,6.4896518485|H,0,24.6633443678,9.015638044,6.9044031646|C,0,25.6
 43047834,6.6454930056,7.8399904183|H,0,26.2064945623,6.4932722033,6.90
 43024431|H,0,25.945883295,5.8439772505,8.5342399273|H,0,24.5748890205,
 6.5050583592,7.6020870757|C,0,25.9387650654,8.0339804849,8.4044140886|
 C,0,25.0736871632,8.35012095,9.6489976015|H,0,25.5032554701,9.28263121
 74,10.0717535656|C,0,23.5914985048,8.620612116,9.3223460991|H,0,23.251
 5876513,7.965249512,8.5037324992|H,0,23.4786907535,9.6548460973,8.9585
 091058|C,0,22.6549534809,8.4055251449,10.5212185858|H,0,22.3409183685,
 7.3478651501,10.5729383224|H,0,21.7407515412,9.0097388361,10.414120479
 7|C,0,24.5253585821,7.7840746601,12.0419992771|H,0,24.1337219875,6.935
 1078885,12.6337783394|F,0,25.4734094405,8.4277030708,12.8292559717|C,0
 ,23.4041532114,8.7822069211,11.7812260234|H,0,23.8582221432,9.77670838
 98,11.6428587281|C,0,25.1488026605,7.2945786235,10.7481955802|H,0,26.1
 831764539,7.0012392667,10.9846707381|H,0,24.6258363867,6.3754010572,10
 .4314633651|C,0,21.447324536,8.1876696373,13.1741805971|H,0,21.1600211
 459,7.5340803002,12.3510827746|N,0,22.5676478658,8.9210825745,13.00696
 53974|C,0,27.4180489275,8.1090726275,8.7825584233|H,0,27.6817986008,9.
 1118188981,9.1605708361|H,0,27.6963491119,7.3709481651,9.5522622134|H,
 0,28.0477617987,7.9086807409,7.8997807046|H,0,25.8160919809,10.1063278
 286,7.7224147005|C,0,23.0045735882,9.7479823616,13.9826403674|C,0,22.3
 073003879,9.8740584173,15.1663691114|H,0,22.6806835063,10.5524498526,1
 5.9329363141|C,0,21.1430592273,9.1331542991,15.3500836451|C,0,20.71235
 75469,8.2786302495,14.3393906871|H,0,19.8081786535,7.6796544008,14.444
 2125049|H,0,23.9268030507,10.2900805236,13.7730173249||Version=EM64W-G
 09RevC.01|State=1-A|HF=-739.5326608|RMSD=8.599e-009|Dipole=-2.9310151,
 0.5078065,2.8180714|Quadrupole=-0.3023232,-13.3418957,13.6442188,-0.93
 55975,-22.2020991,7.7871279|PG=C01 [X(C15H23F1N1)]||@


 CLIMB THE MOUNTAINS AND GET THEIR GOOD TIDINGS.
 NATURE'S PEACE WILL FLOW INTO YOU AS SUNSHINE FLOWS INTO TREES.
 THE WINDS WILL BLOW THEIR OWN FRESHNESS INTO YOU, 
 AND CARES WILL DROP OFF LIKE AUTUMN LEAVES.

                                         -- JOHN MUIR
 Job cpu time:  2 days 15 hours 14 minutes 21.0 seconds.
 File lengths (MBytes):  RWF=   4394 Int=      0 D2E=      0 Chk=     83 Scr=      1
 Normal termination of Gaussian 09 at Tue Dec 10 14:22:21 2013.
