 Entering Gaussian System, Link 0=g09
 Initial command:
 /home/dbchem/mapete/chem/g09-C.01/G09-C.01-ifort-static/g09/l1.exe /scratch/202550.1.lowprio.q/Gau-10860.inp -scrdir=/scratch/202550.1.lowprio.q/
 Entering Link 1 = /home/dbchem/mapete/chem/g09-C.01/G09-C.01-ifort-static/g09/l1.exe PID=     10861.
  
 Copyright (c) 1988,1990,1992,1993,1995,1998,2003,2009,2011,
            Gaussian, Inc.  All Rights Reserved.
  
 This is part of the Gaussian(R) 09 program.  It is based on
 the Gaussian(R) 03 system (copyright 2003, Gaussian, Inc.),
 the Gaussian(R) 98 system (copyright 1998, Gaussian, Inc.),
 the Gaussian(R) 94 system (copyright 1995, Gaussian, Inc.),
 the Gaussian 92(TM) system (copyright 1992, Gaussian, Inc.),
 the Gaussian 90(TM) system (copyright 1990, Gaussian, Inc.),
 the Gaussian 88(TM) system (copyright 1988, Gaussian, Inc.),
 the Gaussian 86(TM) system (copyright 1986, Carnegie Mellon
 University), and the Gaussian 82(TM) system (copyright 1983,
 Carnegie Mellon University). Gaussian is a federally registered
 trademark of Gaussian, Inc.
  
 This software contains proprietary and confidential information,
 including trade secrets, belonging to Gaussian, Inc.
  
 This software is provided under written license and may be
 used, copied, transmitted, or stored only in accord with that
 written license.
  
 The following legend is applicable only to US Government
 contracts under FAR:
  
                    RESTRICTED RIGHTS LEGEND
  
 Use, reproduction and disclosure by the US Government is
 subject to restrictions as set forth in subparagraphs (a)
 and (c) of the Commercial Computer Software - Restricted
 Rights clause in FAR 52.227-19.
  
 Gaussian, Inc.
 340 Quinnipiac St., Bldg. 40, Wallingford CT 06492
  
  
 ---------------------------------------------------------------
 Warning -- This program may not be used in any manner that
 competes with the business of Gaussian, Inc. or will provide
 assistance to any competitor of Gaussian, Inc.  The licensee
 of this program is prohibited from giving any competitor of
 Gaussian, Inc. access to this program.  By using this program,
 the user acknowledges that Gaussian, Inc. is engaged in the
 business of creating and licensing software in the field of
 computational chemistry and represents and warrants to the
 licensee that it is not a competitor of Gaussian, Inc. and that
 it will not use this program in any manner prohibited above.
 ---------------------------------------------------------------
  

 Cite this work as:
 Gaussian 09, Revision C.01,
 M. J. Frisch, G. W. Trucks, H. B. Schlegel, G. E. Scuseria, 
 M. A. Robb, J. R. Cheeseman, G. Scalmani, V. Barone, B. Mennucci, 
 G. A. Petersson, H. Nakatsuji, M. Caricato, X. Li, H. P. Hratchian, 
 A. F. Izmaylov, J. Bloino, G. Zheng, J. L. Sonnenberg, M. Hada, 
 M. Ehara, K. Toyota, R. Fukuda, J. Hasegawa, M. Ishida, T. Nakajima, 
 Y. Honda, O. Kitao, H. Nakai, T. Vreven, J. A. Montgomery, Jr., 
 J. E. Peralta, F. Ogliaro, M. Bearpark, J. J. Heyd, E. Brothers, 
 K. N. Kudin, V. N. Staroverov, T. Keith, R. Kobayashi, J. Normand, 
 K. Raghavachari, A. Rendell, J. C. Burant, S. S. Iyengar, J. Tomasi, 
 M. Cossi, N. Rega, J. M. Millam, M. Klene, J. E. Knox, J. B. Cross, 
 V. Bakken, C. Adamo, J. Jaramillo, R. Gomperts, R. E. Stratmann, 
 O. Yazyev, A. J. Austin, R. Cammi, C. Pomelli, J. W. Ochterski, 
 R. L. Martin, K. Morokuma, V. G. Zakrzewski, G. A. Voth, 
 P. Salvador, J. J. Dannenberg, S. Dapprich, A. D. Daniels, 
 O. Farkas, J. B. Foresman, J. V. Ortiz, J. Cioslowski, 
 and D. J. Fox, Gaussian, Inc., Wallingford CT, 2010.
 
 ******************************************
 Gaussian 09:  EM64L-G09RevC.01 23-Sep-2011
                28-Jul-2014 
 ******************************************
 %nprocshared=4
 Will use up to    4 processors via shared memory.
 %mem=10MW
 %chk=d2diacetylenenmr.chk
 ----------------------------------------------------------------------
 #p nmr=(giao,spinspin,mixed) b3lyp/cc-pvdz scrf=(smd,solvent=chlorofor
 m) output=pickett geom=connectivity
 ----------------------------------------------------------------------
 1/38=1,57=2/1;
 2/12=2,17=6,18=5,40=1/2;
 3/5=16,10=1100000,11=2,16=1,25=1,30=1,70=32201,72=7,74=-5/1,2,8,3;
 4//1;
 5/5=2,38=5,53=7/2;
 8/6=1,10=90,11=11/1;
 10/13=100,45=16,47=3/2;
 6/7=2,8=2,9=2,10=2,28=1/1;
 99/9=1,10=1024/99;
 Leave Link    1 at Mon Jul 28 15:08:29 2014, MaxMem=   10485760 cpu:       0.3
 (Enter /home/dbchem/mapete/chem/g09-C.01/G09-C.01-ifort-static/g09/l101.exe)
 -----------
 Diacetylene
 -----------
 Charge =  0 Multiplicity = 1
 Symbolic Z-Matrix:
 C                     1.39718  -0.55928   0.92863 
 C                     2.59218  -0.55928   0.92863 
 H(Iso=2)              0.33618  -0.55928   0.92863 
 C                     4.13218  -0.55928   0.92863 
 C                     5.32718  -0.55928   0.92863 
 H(Iso=2)              6.38818  -0.55928   0.92863 
 
 NAtoms=      6 NQM=        0 NQMF=       0 NMMI=      6 NMMIF=      0
                NMic=       0 NMicF=      0.
                    Isotopes and Nuclear Properties:
 (Nuclear quadrupole moments (NQMom) in fm**2, nuclear magnetic moments (NMagM)
  in nuclear magnetons)

  Atom         1           2           3           4           5           6
 IAtWgt=          12          12           2          12          12           2
 AtmWgt=  12.0000000  12.0000000   2.0141018  12.0000000  12.0000000   2.0141018
 NucSpn=           0           0           2           0           0           2
 AtZEff=   0.0000000   0.0000000   0.0000000   0.0000000   0.0000000   0.0000000
 NQMom=    0.0000000   0.0000000   0.2860000   0.0000000   0.0000000   0.2860000
 NMagM=    0.0000000   0.0000000   0.8574380   0.0000000   0.0000000   0.8574380
 Leave Link  101 at Mon Jul 28 15:08:29 2014, MaxMem=   10485760 cpu:       0.1
 (Enter /home/dbchem/mapete/chem/g09-C.01/G09-C.01-ifort-static/g09/l202.exe)
                          Input orientation:                          
 ---------------------------------------------------------------------
 Center     Atomic      Atomic             Coordinates (Angstroms)
 Number     Number       Type             X           Y           Z
 ---------------------------------------------------------------------
      1          6           0        1.397180   -0.559283    0.928632
      2          6           0        2.592180   -0.559283    0.928632
      3          1           0        0.336180   -0.559283    0.928632
      4          6           0        4.132180   -0.559283    0.928632
      5          6           0        5.327180   -0.559283    0.928632
      6          1           0        6.388180   -0.559283    0.928632
 ---------------------------------------------------------------------
                    Distance matrix (angstroms):
                    1          2          3          4          5
     1  C    0.000000
     2  C    1.195000   0.000000
     3  H    1.061000   2.256000   0.000000
     4  C    2.735000   1.540000   3.796000   0.000000
     5  C    3.930000   2.735000   4.991000   1.195000   0.000000
     6  H    4.991000   3.796000   6.052000   2.256000   1.061000
                    6
     6  H    0.000000
 Stoichiometry    C4H2
 Framework group  D*H[C*(HCC.CCH)]
 Deg. of freedom     3
 Full point group                 D*H     NOp   8
 Largest Abelian subgroup         D2H     NOp   8
 Largest concise Abelian subgroup C2      NOp   2
                         Standard orientation:                         
 ---------------------------------------------------------------------
 Center     Atomic      Atomic             Coordinates (Angstroms)
 Number     Number       Type             X           Y           Z
 ---------------------------------------------------------------------
      1          6           0        0.000000    0.000000    1.965000
      2          6           0        0.000000    0.000000    0.770000
      3          1           0        0.000000    0.000000    3.026000
      4          6           0        0.000000    0.000000   -0.770000
      5          6           0        0.000000    0.000000   -1.965000
      6          1           0        0.000000    0.000000   -3.026000
 ---------------------------------------------------------------------
 Rotational constants (GHZ):      0.0000000      3.5148498      3.5148498
 Leave Link  202 at Mon Jul 28 15:08:29 2014, MaxMem=   10485760 cpu:       0.0
 (Enter /home/dbchem/mapete/chem/g09-C.01/G09-C.01-ifort-static/g09/l301.exe)
 Standard basis: CC-pVDZ (5D, 7F)
 Converting basis for Fermi contact spin-spin IFCMod=1.
 AO basis functions are being uncontracted.
 Ernie: Thresh=  0.10000D-02 Tol=  0.10000D-05 Strict=F.
 There are    59 symmetry adapted basis functions of AG  symmetry.
 There are     2 symmetry adapted basis functions of B1G symmetry.
 There are    11 symmetry adapted basis functions of B2G symmetry.
 There are    11 symmetry adapted basis functions of B3G symmetry.
 There are     2 symmetry adapted basis functions of AU  symmetry.
 There are    59 symmetry adapted basis functions of B1U symmetry.
 There are    11 symmetry adapted basis functions of B2U symmetry.
 There are    11 symmetry adapted basis functions of B3U symmetry.
 Integral buffers will be    131072 words long.
 Raffenetti 2 integral format.
 Two-electron integral symmetry is turned on.
   166 basis functions,   170 primitive gaussians,   170 cartesian basis functions
    13 alpha electrons       13 beta electrons
       nuclear repulsion energy        74.8645013381 Hartrees.
 IExCor=  402 DFT=T Ex+Corr=B3LYP ExCW=0 ScaHFX=  0.200000
 ScaDFX=  0.800000  0.720000  1.000000  0.810000 ScalE2=  1.000000  1.000000
 IRadAn= 199302 IRanWt=     -1 IRanGd=            0 ICorTp=0
 NAtoms=    6 NActive=    6 NUniq=    3 SFac= 4.00D+00 NAtFMM=   60 NAOKFM=F Big=F
 ------------------------------------------------------------------------------
 Polarizable Continuum Model (PCM)
 =================================
 Model                : PCM.
 Atomic radii         : SMD-Coulomb.
 Polarization charges : Total charges.
 Charge compensation  : None.
 Solution method      : Matrix inversion.
 Cavity type          : VdW (van der Waals Surface) (Alpha=1.000).
 Cavity algorithm     : GePol (No added spheres)
                        Default sphere list used, NSphG=    6.
                        Lebedev-Laikov grids with approx.  5.0 points / Ang**2.
                        Smoothing algorithm: Karplus/York (Gamma=1.0000).
                        Polarization charges: spherical gaussians, with
                                              point-specific exponents (IZeta= 3).
                        Self-potential: point-specific (ISelfS= 7).
                        Self-field    : sphere-specific E.n sum rule (ISelfD= 2).
 Solvent              : Chloroform, Eps=   4.711300 Eps(inf)=   2.090627
 ------------------------------------------------------------------------------
 Spheres list:
 ISph  on   Nord    Re0     Alpha      Xe            Ye            Ze
    1   C      1    1.850   1.000      0.000000      0.000000      1.965000
    2   C      2    1.850   1.000      0.000000      0.000000      0.770000
    3   H      3    1.200   1.000      0.000000      0.000000      3.026000
    4   C      4    1.850   1.000      0.000000      0.000000     -0.770000
    5   C      5    1.850   1.000      0.000000      0.000000     -1.965000
    6   H      6    1.200   1.000      0.000000      0.000000     -3.026000
 ------------------------------------------------------------------------------
 GePol: Number of generator spheres                  =       6
 GePol: Total number of spheres                      =       6
 GePol: Number of exposed spheres                    =       6 (100.00%)
 GePol: Number of points                             =     794
 GePol: Average weight of points                     =       0.12
 GePol: Minimum weight of points                     =   0.64D-04
 GePol: Maximum weight of points                     =    0.17992
 GePol: Number of points with low weight             =      56
 GePol: Fraction of low-weight points (<1% of avg)   =       7.05%
 GePol: Cavity surface area                          =     91.815 Ang**2
 GePol: Cavity volume                                =     69.031 Ang**3
 ------------------------------------------------------------------------------
 Atomic radii for non-electrostatic terms: SMD-CDS.
 ------------------------------------------------------------------------------
 PCM non-electrostatic energy =         0.0009419296 Hartrees.
 Nuclear repulsion after PCM non-electrostatic terms =       74.8654432677 Hartrees.
 Leave Link  301 at Mon Jul 28 15:08:29 2014, MaxMem=   10485760 cpu:       0.2
 (Enter /home/dbchem/mapete/chem/g09-C.01/G09-C.01-ifort-static/g09/l302.exe)
 NPDir=0 NMtPBC=     1 NCelOv=     1 NCel=       1 NClECP=     1 NCelD=      1
         NCelK=      1 NCelE2=     1 NClLst=     1 CellRange=     0.0.
 One-electron integrals computed using PRISM.
 One-electron integral symmetry used in STVInt
 PrsmSu:  requested number of processors reduced to:   3 ShMem   1 Linda.
 NBasis=   166 RedAO= T  NBF=    59     2    11    11     2    59    11    11
 NBsUse=   134 1.00D-06 NBFU=    43     2    11    11     2    43    11    11
 Precomputing XC quadrature grid using
 IXCGrd= 2 IRadAn=      199302 IRanWt=          -1 IRanGd=           0 AccXCQ= 0.00D+00.
 NRdTot=    1194 NPtTot=      297168 NUsed=      305617 NTot=      305649
 NSgBfM=   122   122   122   122   122 NAtAll=     6     6.
 Leave Link  302 at Mon Jul 28 15:08:30 2014, MaxMem=   10485760 cpu:       1.2
 (Enter /home/dbchem/mapete/chem/g09-C.01/G09-C.01-ifort-static/g09/l308.exe)
 Leave Link  308 at Mon Jul 28 15:08:30 2014, MaxMem=   10485760 cpu:       0.1
 (Enter /home/dbchem/mapete/chem/g09-C.01/G09-C.01-ifort-static/g09/l303.exe)
 DipDrv:  MaxL=1.
 Leave Link  303 at Mon Jul 28 15:08:30 2014, MaxMem=   10485760 cpu:       0.1
 (Enter /home/dbchem/mapete/chem/g09-C.01/G09-C.01-ifort-static/g09/l401.exe)
 Harris functional with IExCor=  402 diagonalized for initial guess.
 ExpMin= 1.22D-01 ExpMax= 6.00D+04 ExpMxC= 6.00D+04 IAcc=4 IRadAn=    199590 AccDes= 0.00D+00
 HarFok:  IExCor=  402 AccDes= 0.00D+00 IRadAn=    199590 IDoV= 1
 ScaDFX=  1.000000  1.000000  1.000000  1.000000
 FoFCou: FMM=F IPFlag=           0 FMFlag=      100000 FMFlg1=           0
         NFxFlg=           0 DoJE=T BraDBF=F KetDBF=T FulRan=T
         Omega=  0.000000  0.000000  1.000000  0.000000  0.000000 ICntrl=     500 IOpCl=  0
         NMat0=    1 NMatS0=    1 NMatT0=    0 NMatD0=    1 NMtDS0=    0 NMtDT0=    0
         I1Cent=           4 NGrid=           0.
 Petite list used in FoFCou.
 Harris En= -153.549815125744    
 Initial guess orbital symmetries:
       Occupied  (SGU) (SGG) (SGG) (SGU) (SGG) (SGU) (SGG) (SGU)
                 (SGG) (PIU) (PIU) (PIG) (PIG)
       Virtual   (PIU) (PIU) (SGU) (PIG) (PIG) (SGG) (SGU) (SGG)
                 (SGU) (PIU) (PIU) (SGG) (PIG) (PIG) (SGU) (PIU)
                 (PIU) (SGG) (PIG) (PIG) (SGU) (SGG) (SGG) (PIU)
                 (PIU) (DLTG) (DLTG) (SGU) (DLTU) (DLTU) (SGU)
                 (PIG) (PIG) (SGG) (DLTG) (DLTG) (PIU) (PIU) (SGU)
                 (DLTU) (DLTU) (PIG) (PIG) (SGG) (SGU) (PIU) (PIU)
                 (SGG) (PIG) (PIG) (SGG) (SGU) (SGU) (PIU) (PIU)
                 (PIG) (PIG) (PIU) (PIU) (PIG) (PIG) (SGG) (SGU)
                 (SGG) (SGU) (SGG) (SGU) (SGG) (SGU) (SGG) (SGU)
                 (PIU) (PIU) (PIG) (PIG) (PIU) (PIU) (PIG) (PIG)
                 (SGG) (SGU) (SGG) (SGU) (SGG) (SGU) (SGG) (SGU)
                 (SGG) (SGU) (SGG) (SGU) (SGG) (SGU) (SGG) (SGU)
                 (SGG) (SGU) (SGG) (SGU) (SGG) (SGU) (SGG) (SGU)
                 (SGG) (SGU) (SGG) (SGU) (SGG) (SGU) (SGG) (SGU)
                 (SGG) (SGU) (SGG) (SGU) (SGG) (SGU) (SGG) (SGU)
                 (SGG) (SGU)
 The electronic state of the initial guess is 1-SGG.
 Leave Link  401 at Mon Jul 28 15:08:30 2014, MaxMem=   10485760 cpu:       1.6
 (Enter /home/dbchem/mapete/chem/g09-C.01/G09-C.01-ifort-static/g09/l502.exe)
 Closed shell SCF:
 Requested convergence on RMS density matrix=1.00D-08 within 128 cycles.
 Requested convergence on MAX density matrix=1.00D-06.
 Requested convergence on             energy=1.00D-06.
 No special actions if energy rises.
 Using DIIS extrapolation, IDIIS=  1040.
 Integral symmetry usage will be decided dynamically.
       305550 words used for storage of precomputed grid.
 IEnd=      413692 IEndB=      413692 NGot=    10485760 MDV=    10117779
 LenX=    10117779 LenY=    10088438
 Fock matrices will be formed incrementally for  20 cycles.

 Cycle   1  Pass 1  IDiag  1:
 FoFCou: FMM=F IPFlag=           0 FMFlag=      100000 FMFlg1=           0
         NFxFlg=           0 DoJE=F BraDBF=F KetDBF=F FulRan=T
         Omega=  0.000000  0.000000  1.000000  0.000000  0.000000 ICntrl=       0 IOpCl=  0
         NMat0=    1 NMatS0=    1 NMatT0=    0 NMatD0=    1 NMtDS0=    0 NMtDT0=    0
         I1Cent=           0 NGrid=           0.
 Petite list used in FoFCou.
 CoulSu:  requested number of processors reduced to:   3 ShMem   1 Linda.
 CoulSu:  requested number of processors reduced to:   3 ShMem   1 Linda.
 E= -153.396064500517    
 DIIS: error= 1.36D-01 at cycle   1 NSaved=   1.
 NSaved= 1 IEnMin= 1 EnMin= -153.396064500517     IErMin= 1 ErrMin= 1.36D-01
 ErrMax= 1.36D-01 EMaxC= 1.00D-01 BMatC= 6.12D-01 BMatP= 6.12D-01
 IDIUse=3 WtCom= 0.00D+00 WtEn= 1.00D+00
 Coeff-Com:  0.100D+01
 Coeff-En:   0.100D+01
 Coeff:      0.100D+01
 Gap=     0.246 Goal=   None    Shift=    0.000
 DSYEVD returned Info=          87 IAlg= 4 N=    43 NDim=   134 NE2=       75285 trying DSYEV.
 DSYEVD returned Info=          87 IAlg= 4 N=    43 NDim=   134 NE2=       75285 trying DSYEV.
 GapD=    0.246 DampG=1.000 DampE=0.250 DampFc=0.2500 IDamp=-1.
 Damping current iteration by 2.50D-01
 RMSDP=8.49D-03 MaxDP=2.59D-01              OVMax= 1.58D-01

 Cycle   2  Pass 1  IDiag  1:
 RMSU=  8.32D-04    CP:  8.97D-01
 E= -153.432925414377     Delta-E=       -0.036860913859 Rises=F Damp=T
 DIIS: error= 1.02D-01 at cycle   2 NSaved=   2.
 NSaved= 2 IEnMin= 2 EnMin= -153.432925414377     IErMin= 2 ErrMin= 1.02D-01
 ErrMax= 1.02D-01 EMaxC= 1.00D-01 BMatC= 3.17D-01 BMatP= 6.12D-01
 IDIUse=3 WtCom= 0.00D+00 WtEn= 1.00D+00
 Coeff-Com: -0.213D+01 0.313D+01
 Coeff-En:   0.000D+00 0.100D+01
 Coeff:      0.000D+00 0.100D+01
 Gap=     0.252 Goal=   None    Shift=    0.000
 DSYEVD returned Info=          87 IAlg= 4 N=    43 NDim=   134 NE2=       75285 trying DSYEV.
 DSYEVD returned Info=          87 IAlg= 4 N=    43 NDim=   134 NE2=       75285 trying DSYEV.
 RMSDP=5.15D-03 MaxDP=1.64D-01 DE=-3.69D-02 OVMax= 5.60D-02

 Cycle   3  Pass 1  IDiag  1:
 RMSU=  4.60D-04    CP:  6.47D-01  3.00D+00
 E= -153.482073670588     Delta-E=       -0.049148256211 Rises=F Damp=F
 DIIS: error= 1.47D-02 at cycle   3 NSaved=   3.
 NSaved= 3 IEnMin= 3 EnMin= -153.482073670588     IErMin= 3 ErrMin= 1.47D-02
 ErrMax= 1.47D-02 EMaxC= 1.00D-01 BMatC= 1.89D-02 BMatP= 3.17D-01
 IDIUse=3 WtCom= 8.53D-01 WtEn= 1.47D-01
 Coeff-Com:  0.139D+01-0.180D+01 0.141D+01
 Coeff-En:   0.401D-01 0.000D+00 0.960D+00
 Coeff:      0.119D+01-0.154D+01 0.134D+01
 Gap=     0.269 Goal=   None    Shift=    0.000
 DSYEVD returned Info=          87 IAlg= 4 N=    43 NDim=   134 NE2=       75285 trying DSYEV.
 DSYEVD returned Info=          87 IAlg= 4 N=    43 NDim=   134 NE2=       75285 trying DSYEV.
 RMSDP=2.10D-03 MaxDP=6.23D-02 DE=-4.91D-02 OVMax= 4.43D-02

 Cycle   4  Pass 1  IDiag  1:
 RMSU=  4.03D-04    CP:  7.45D-01  2.39D+00  4.14D-01
 E= -153.495090673415     Delta-E=       -0.013017002828 Rises=F Damp=F
 DIIS: error= 1.07D-02 at cycle   4 NSaved=   4.
 NSaved= 4 IEnMin= 4 EnMin= -153.495090673415     IErMin= 4 ErrMin= 1.07D-02
 ErrMax= 1.07D-02 EMaxC= 1.00D-01 BMatC= 5.43D-03 BMatP= 1.89D-02
 IDIUse=3 WtCom= 8.93D-01 WtEn= 1.07D-01
 Coeff-Com:  0.832D+00-0.111D+01 0.730D+00 0.549D+00
 Coeff-En:   0.000D+00 0.000D+00 0.671D-01 0.933D+00
 Coeff:      0.743D+00-0.992D+00 0.659D+00 0.590D+00
 Gap=     0.264 Goal=   None    Shift=    0.000
 DSYEVD returned Info=          87 IAlg= 4 N=    43 NDim=   134 NE2=       75285 trying DSYEV.
 DSYEVD returned Info=          87 IAlg= 4 N=    43 NDim=   134 NE2=       75285 trying DSYEV.
 RMSDP=6.90D-04 MaxDP=1.95D-02 DE=-1.30D-02 OVMax= 2.58D-02

 Cycle   5  Pass 1  IDiag  1:
 RMSU=  1.97D-04    CP:  7.17D-01  2.62D+00  7.38D-01  6.44D-01
 E= -153.500422150689     Delta-E=       -0.005331477274 Rises=F Damp=F
 DIIS: error= 3.65D-03 at cycle   5 NSaved=   5.
 NSaved= 5 IEnMin= 5 EnMin= -153.500422150689     IErMin= 5 ErrMin= 3.65D-03
 ErrMax= 3.65D-03 EMaxC= 1.00D-01 BMatC= 4.29D-04 BMatP= 5.43D-03
 IDIUse=3 WtCom= 9.64D-01 WtEn= 3.65D-02
 Coeff-Com: -0.523D-01 0.695D-01 0.303D-01 0.198D+00 0.755D+00
 Coeff-En:   0.000D+00 0.000D+00 0.000D+00 0.000D+00 0.100D+01
 Coeff:     -0.504D-01 0.670D-01 0.292D-01 0.191D+00 0.764D+00
 Gap=     0.264 Goal=   None    Shift=    0.000
 DSYEVD returned Info=          87 IAlg= 4 N=    43 NDim=   134 NE2=       75285 trying DSYEV.
 DSYEVD returned Info=          87 IAlg= 4 N=    43 NDim=   134 NE2=       75285 trying DSYEV.
 RMSDP=9.74D-05 MaxDP=2.12D-03 DE=-5.33D-03 OVMax= 6.99D-03

 Cycle   6  Pass 1  IDiag  1:
 RMSU=  8.87D-06    CP:  7.18D-01  2.63D+00  6.49D-01  7.02D-01  7.61D-01
 E= -153.500850501229     Delta-E=       -0.000428350540 Rises=F Damp=F
 DIIS: error= 3.81D-04 at cycle   6 NSaved=   6.
 NSaved= 6 IEnMin= 6 EnMin= -153.500850501229     IErMin= 6 ErrMin= 3.81D-04
 ErrMax= 3.81D-04 EMaxC= 1.00D-01 BMatC= 4.67D-06 BMatP= 4.29D-04
 IDIUse=3 WtCom= 9.96D-01 WtEn= 3.81D-03
 Coeff-Com:  0.349D-02-0.471D-02 0.889D-02 0.241D-01 0.154D+00 0.814D+00
 Coeff-En:   0.000D+00 0.000D+00 0.000D+00 0.000D+00 0.000D+00 0.100D+01
 Coeff:      0.348D-02-0.469D-02 0.886D-02 0.240D-01 0.153D+00 0.815D+00
 Gap=     0.264 Goal=   None    Shift=    0.000
 DSYEVD returned Info=          87 IAlg= 4 N=    43 NDim=   134 NE2=       75285 trying DSYEV.
 DSYEVD returned Info=          87 IAlg= 4 N=    43 NDim=   134 NE2=       75285 trying DSYEV.
 RMSDP=9.04D-06 MaxDP=1.94D-04 DE=-4.28D-04 OVMax= 6.50D-04

 Cycle   7  Pass 1  IDiag  1:
 RMSU=  9.20D-07    CP:  7.18D-01  2.63D+00  6.57D-01  6.99D-01  7.81D-01
                    CP:  8.64D-01
 E= -153.500855074606     Delta-E=       -0.000004573377 Rises=F Damp=F
 DIIS: error= 4.86D-06 at cycle   7 NSaved=   7.
 NSaved= 7 IEnMin= 7 EnMin= -153.500855074606     IErMin= 7 ErrMin= 4.86D-06
 ErrMax= 4.86D-06 EMaxC= 1.00D-01 BMatC= 1.54D-09 BMatP= 4.67D-06
 IDIUse=1 WtCom= 1.00D+00 WtEn= 0.00D+00
 Coeff-Com:  0.549D-03-0.730D-03-0.183D-03-0.149D-02 0.182D-02 0.878D-01
 Coeff-Com:  0.912D+00
 Coeff:      0.549D-03-0.730D-03-0.183D-03-0.149D-02 0.182D-02 0.878D-01
 Coeff:      0.912D+00
 Gap=     0.264 Goal=   None    Shift=    0.000
 DSYEVD returned Info=          87 IAlg= 4 N=    43 NDim=   134 NE2=       75285 trying DSYEV.
 DSYEVD returned Info=          87 IAlg= 4 N=    43 NDim=   134 NE2=       75285 trying DSYEV.
 RMSDP=3.02D-07 MaxDP=8.29D-06 DE=-4.57D-06 OVMax= 7.75D-06

 Cycle   8  Pass 1  IDiag  1:
 RMSU=  1.03D-07    CP:  7.18D-01  2.63D+00  6.57D-01  6.99D-01  7.81D-01
                    CP:  8.83D-01  9.83D-01
 E= -153.500855075791     Delta-E=       -0.000000001184 Rises=F Damp=F
 DIIS: error= 1.15D-06 at cycle   8 NSaved=   8.
 NSaved= 8 IEnMin= 8 EnMin= -153.500855075791     IErMin= 8 ErrMin= 1.15D-06
 ErrMax= 1.15D-06 EMaxC= 1.00D-01 BMatC= 4.89D-11 BMatP= 1.54D-09
 IDIUse=1 WtCom= 1.00D+00 WtEn= 0.00D+00
 Coeff-Com:  0.125D-04-0.161D-04-0.734D-04-0.266D-03-0.140D-02-0.126D-02
 Coeff-Com:  0.638D-01 0.939D+00
 Coeff:      0.125D-04-0.161D-04-0.734D-04-0.266D-03-0.140D-02-0.126D-02
 Coeff:      0.638D-01 0.939D+00
 Gap=     0.264 Goal=   None    Shift=    0.000
 DSYEVD returned Info=          87 IAlg= 4 N=    43 NDim=   134 NE2=       75285 trying DSYEV.
 DSYEVD returned Info=          87 IAlg= 4 N=    43 NDim=   134 NE2=       75285 trying DSYEV.
 RMSDP=4.33D-08 MaxDP=9.99D-07 DE=-1.18D-09 OVMax= 1.98D-06

 Cycle   9  Pass 1  IDiag  1:
 RMSU=  7.84D-09    CP:  7.18D-01  2.63D+00  6.57D-01  6.99D-01  7.81D-01
                    CP:  8.83D-01  9.98D-01  9.74D-01
 E= -153.500855075841     Delta-E=       -0.000000000050 Rises=F Damp=F
 DIIS: error= 8.83D-08 at cycle   9 NSaved=   9.
 NSaved= 9 IEnMin= 9 EnMin= -153.500855075841     IErMin= 9 ErrMin= 8.83D-08
 ErrMax= 8.83D-08 EMaxC= 1.00D-01 BMatC= 3.04D-13 BMatP= 4.89D-11
 IDIUse=1 WtCom= 1.00D+00 WtEn= 0.00D+00
 Coeff-Com:  0.446D-05-0.596D-05 0.280D-05-0.320D-05-0.779D-04-0.209D-03
 Coeff-Com: -0.218D-02 0.550D-01 0.947D+00
 Coeff:      0.446D-05-0.596D-05 0.280D-05-0.320D-05-0.779D-04-0.209D-03
 Coeff:     -0.218D-02 0.550D-01 0.947D+00
 Gap=     0.264 Goal=   None    Shift=    0.000
 DSYEVD returned Info=          87 IAlg= 4 N=    43 NDim=   134 NE2=       75285 trying DSYEV.
 DSYEVD returned Info=          87 IAlg= 4 N=    43 NDim=   134 NE2=       75285 trying DSYEV.
 RMSDP=3.57D-09 MaxDP=8.92D-08 DE=-5.01D-11 OVMax= 1.46D-07

 Error on total polarization charges =  0.02108
 SCF Done:  E(RB3LYP) =  -153.500855076     A.U. after    9 cycles
             Convg  =    0.3572D-08             -V/T =  2.0065
 KE= 1.525022517319D+02 PE=-5.056727381597D+02 EE= 1.248041880842D+02
 SMD-CDS (non-electrostatic) energy       (kcal/mol) =       0.59
 (included in total energy above)
 Leave Link  502 at Mon Jul 28 15:08:38 2014, MaxMem=   10485760 cpu:      28.5
 (Enter /home/dbchem/mapete/chem/g09-C.01/G09-C.01-ifort-static/g09/l801.exe)
 Range of M.O.s used for correlation:     1   134
 NBasis=   166 NAE=    13 NBE=    13 NFC=     0 NFV=     0
 NROrb=    134 NOA=    13 NOB=    13 NVA=   121 NVB=   121

 **** Warning!!: The largest alpha MO coefficient is  0.42276529D+02

 Leave Link  801 at Mon Jul 28 15:08:38 2014, MaxMem=   10485760 cpu:       0.0
 (Enter /home/dbchem/mapete/chem/g09-C.01/G09-C.01-ifort-static/g09/l1002.exe)
 Minotr:  Closed shell wavefunction.
          IDoAtm=111111
 NEqPCM:  Using equilibrium solvation (IEInf=0, Eps=   4.7113, EpsInf=   2.0906)
          Direct CPHF calculation.
          Differentiating once with respect to Fermi-contact.
          Electric field/nuclear overlap derivatives assumed to be zero.
          Using symmetry in CPHF.
          Requested convergence is 1.0D-10 RMS, and 1.0D-09 maximum.
          Secondary convergence is 1.0D-12 RMS, and 1.0D-12 maximum.
          NewPWx=T KeepS1=F KeepF1=F KeepIn=T MapXYZ=F SortEE=F KeepMc=T.
          MDV=      10485696 using IRadAn=  199302.
 Using stored XC quadrature information.
          Solving linear equations simultaneously, MaxMat=       0.
          There are     3 degrees of freedom in the 1st order CPHF.  IDoFFX=0.
      3 vectors produced by pass  0 Test12= 5.24D-18 3.33D-10 XBig12= 1.94D+01 9.41D-01.
 AX will form     3 AO Fock derivatives at one time.
 Integrals replicated using symmetry in FoFDir.
 MinBra= 0 MaxBra= 2 Meth= 1.
 IRaf=       0 NMat=   3 IRICut=       1 DoRegI=T DoRafI=F ISym2E= 2 JSym2E=2.
      3 vectors produced by pass  1 Test12= 5.24D-18 3.33D-10 XBig12= 1.56D-01 1.34D-01.
      3 vectors produced by pass  2 Test12= 5.24D-18 3.33D-10 XBig12= 1.04D-02 3.90D-02.
      3 vectors produced by pass  3 Test12= 5.24D-18 3.33D-10 XBig12= 2.23D-04 5.31D-03.
      3 vectors produced by pass  4 Test12= 5.24D-18 3.33D-10 XBig12= 2.87D-06 5.83D-04.
      3 vectors produced by pass  5 Test12= 5.24D-18 3.33D-10 XBig12= 1.59D-08 3.01D-05.
      3 vectors produced by pass  6 Test12= 5.24D-18 3.33D-10 XBig12= 4.64D-11 1.37D-06.
      3 vectors produced by pass  7 Test12= 5.24D-18 3.33D-10 XBig12= 8.38D-14 5.60D-08.
      2 vectors produced by pass  8 Test12= 5.24D-18 3.33D-10 XBig12= 3.49D-16 4.81D-09.
 Inverted reduced A of dimension    26 with in-core refinement.
 Max diff in FC couplings:  IJMax=     5     4 Diff= 3.98D-03 IJMaxR=     6     4 DiffR= 1.64D-04
 Fermi Contact (FC) contribution to K (Hz):
                1             2             3             4             5 
      1  0.123400D+11
      2  0.106760D+03  0.123400D+11
      3  0.352737D+02  0.696053D+01  0.123400D+11
      4  0.139144D+02  0.847146D+02  0.995627D+00  0.123400D+11
      5  0.268223D+01  0.139144D+02 -0.692992D-01  0.106760D+03  0.123400D+11
      6 -0.692992D-01  0.995627D+00  0.431132D-01  0.696053D+01  0.352737D+02
                6 
      6  0.123400D+11
 Fermi Contact (FC) contribution to J (Hz):
                1             2             3             4             5 
      1  0.243533D+11
      2  0.210694D+03  0.243533D+11
      3  0.424889D+02  0.838429D+01  0.907237D+10
      4  0.274604D+02  0.167186D+03  0.119928D+01  0.243533D+11
      5  0.529344D+01  0.274604D+02 -0.834742D-01  0.210694D+03  0.243533D+11
      6 -0.834742D-01  0.119928D+01  0.316969D-01  0.838429D+01  0.424889D+02
                6 
      6  0.907237D+10
 End of Minotr Frequency-dependent properties file   721 does not exist.
 End of Minotr Frequency-dependent properties file   722 does not exist.
 Leave Link 1002 at Mon Jul 28 15:09:09 2014, MaxMem=   10485760 cpu:     126.5
 (Enter /home/dbchem/mapete/chem/g09-C.01/G09-C.01-ifort-static/g09/l601.exe)
 Copying SCF densities to generalized density rwf, IOpCl= 0 IROHF=0.

 **********************************************************************

            Population analysis using the SCF density.

 **********************************************************************

 Orbital symmetries:
       Occupied  (SGG) (SGU) (SGU) (SGG) (SGG) (SGU) (SGG) (SGU)
                 (SGG) (PIU) (PIU) (PIG) (PIG)
       Virtual   (PIU) (PIU) (SGU) (SGG) (PIG) (PIG) (SGU) (SGG)
                 (SGU) (PIU) (PIU) (SGG) (PIG) (PIG) (SGU) (PIU)
                 (PIU) (SGG) (PIG) (PIG) (SGU) (SGG) (SGG) (DLTG)
                 (DLTG) (PIU) (PIU) (SGU) (DLTU) (DLTU) (SGU) (SGG)
                 (PIG) (PIG) (DLTG) (DLTG) (SGU) (PIU) (PIU) (DLTU)
                 (DLTU) (PIG) (PIG) (SGG) (SGU) (PIU) (PIU) (SGG)
                 (SGG) (PIG) (PIG) (SGU) (SGU) (PIU) (PIU) (PIG)
                 (PIG) (PIU) (PIU) (PIG) (PIG) (SGG) (SGU) (SGG)
                 (SGU) (SGG) (SGU) (SGG) (SGU) (SGG) (SGU) (PIU)
                 (PIU) (PIG) (PIG) (PIU) (PIU) (PIG) (PIG) (SGG)
                 (SGU) (SGG) (SGU) (SGG) (SGU) (SGG) (SGU) (SGG)
                 (SGU) (SGG) (SGU) (SGG) (SGU) (SGG) (SGU) (SGG)
                 (SGU) (SGG) (SGU) (SGG) (SGU) (SGG) (SGU) (SGG)
                 (SGU) (SGG) (SGU) (SGG) (SGU) (SGG) (SGU) (SGG)
                 (SGU) (SGG) (SGU) (SGG) (SGU) (SGG) (SGU) (SGG)
                 (SGU)
 The electronic state is 1-SGG.
 Alpha  occ. eigenvalues --  -10.22659 -10.22644 -10.20073 -10.20072  -0.79819
 Alpha  occ. eigenvalues --   -0.76302  -0.60583  -0.54119  -0.51066  -0.35132
 Alpha  occ. eigenvalues --   -0.35132  -0.28398  -0.28398
 Alpha virt. eigenvalues --   -0.02002  -0.02002   0.08241   0.10183   0.12236
 Alpha virt. eigenvalues --    0.12236   0.14785   0.27886   0.29842   0.39828
 Alpha virt. eigenvalues --    0.39828   0.40287   0.45728   0.45728   0.50276
 Alpha virt. eigenvalues --    0.56624   0.56624   0.60794   0.65794   0.65794
 Alpha virt. eigenvalues --    0.67439   0.81085   0.92562   0.95480   0.95480
 Alpha virt. eigenvalues --    0.96076   0.96076   1.03231   1.03964   1.03965
 Alpha virt. eigenvalues --    1.13634   1.22890   1.24050   1.24050   1.32888
 Alpha virt. eigenvalues --    1.32888   1.40982   1.43762   1.43762   1.50076
 Alpha virt. eigenvalues --    1.50076   1.75111   1.75111   1.82242   1.87069
 Alpha virt. eigenvalues --    2.10090   2.10090   2.29870   2.54310   2.56481
 Alpha virt. eigenvalues --    2.56481   2.57611   2.59964   2.94708   2.94708
 Alpha virt. eigenvalues --    3.12662   3.12662   3.27798   3.27798   3.28732
 Alpha virt. eigenvalues --    3.28732   3.31530   3.45904   3.58279   3.83302
 Alpha virt. eigenvalues --    3.86259   4.21638   7.09924   7.74200   8.79112
 Alpha virt. eigenvalues --    9.32227  17.30368  17.30368  17.37485  17.37485
 Alpha virt. eigenvalues --   17.42545  17.42545  17.43919  17.43919  17.69174
 Alpha virt. eigenvalues --   17.82825  17.83193  17.96493  19.95191  19.95540
 Alpha virt. eigenvalues --   34.47675  35.04989  35.88202  36.38862  86.99305
 Alpha virt. eigenvalues --   86.99681 131.53384 132.03183 132.79602 133.22915
 Alpha virt. eigenvalues --  298.15287 298.15606 498.45895 498.89691 499.59304
 Alpha virt. eigenvalues --  499.97011 953.42777 953.430532139.655292140.03855
 Alpha virt. eigenvalues -- 2140.655982140.982883109.720823109.72329**********
 Alpha virt. eigenvalues -- **************************************************
 Alpha virt. eigenvalues -- **************************************************
 Alpha virt. eigenvalues -- **********
          Condensed to atoms (all electrons):
              1          2          3          4          5          6
     1  C    5.867026   0.600902   0.462927  -0.302029  -0.029154  -0.000128
     2  C    0.600902   5.118980  -0.065117   0.187940  -0.302029  -0.001422
     3  H    0.462927  -0.065117   0.464941  -0.001422  -0.000128   0.000000
     4  C   -0.302029   0.187940  -0.001422   5.118980   0.600902  -0.065117
     5  C   -0.029154  -0.302029  -0.000128   0.600902   5.867026   0.462927
     6  H   -0.000128  -0.001422   0.000000  -0.065117   0.462927   0.464941
 Mulliken atomic charges:
              1
     1  C   -0.599545
     2  C    0.460745
     3  H    0.138799
     4  C    0.460745
     5  C   -0.599545
     6  H    0.138799
 Sum of Mulliken atomic charges =  -0.00000
 Mulliken charges with hydrogens summed into heavy atoms:
              1
     1  C   -0.460745
     2  C    0.460745
     4  C    0.460745
     5  C   -0.460745
 Sum of Mulliken charges with hydrogens summed into heavy atoms =  -0.00000
 Electronic spatial extent (au):  <R**2>=            299.8233
 Charge=             -0.0000 electrons
 Dipole moment (field-independent basis, Debye):
    X=             -0.0000    Y=             -0.0000    Z=             -0.0000  Tot=              0.0000
 Quadrupole moment (field-independent basis, Debye-Ang):
   XX=            -24.6612   YY=            -24.6612   ZZ=             -9.2585
   XY=             -0.0000   XZ=              0.0000   YZ=              0.0000
 Traceless Quadrupole moment (field-independent basis, Debye-Ang):
   XX=             -5.1342   YY=             -5.1342   ZZ=             10.2685
   XY=             -0.0000   XZ=              0.0000   YZ=              0.0000
 Octapole moment (field-independent basis, Debye-Ang**2):
  XXX=             -0.0000  YYY=             -0.0000  ZZZ=             -0.0000  XYY=             -0.0000
  XXY=             -0.0000  XXZ=              0.0000  XZZ=              0.0000  YZZ=              0.0000
  YYZ=              0.0000  XYZ=              0.0000
 Hexadecapole moment (field-independent basis, Debye-Ang**3):
 XXXX=            -27.4853 YYYY=            -27.4853 ZZZZ=           -192.9118 XXXY=             -0.0000
 XXXZ=              0.0000 YYYX=             -0.0000 YYYZ=              0.0000 ZZZX=              0.0000
 ZZZY=              0.0000 XXYY=             -9.1618 XXZZ=            -72.0737 YYZZ=            -72.0737
 XXYZ=              0.0000 YYXZ=              0.0000 ZZXY=             -0.0000
 N-N= 7.486544326768D+01 E-N=-5.056727387927D+02  KE= 1.525022517319D+02
 Symmetry AG   KE= 7.315337846385D+01
 Symmetry B1G  KE= 6.614893508737D-34
 Symmetry B2G  KE= 2.413703603862D+00
 Symmetry B3G  KE= 2.413703603862D+00
 Symmetry AU   KE= 7.747084074706D-34
 Symmetry B1U  KE= 7.018675259334D+01
 Symmetry B2U  KE= 2.167356733501D+00
 Symmetry B3U  KE= 2.167356733501D+00
 No NMR shielding tensors so no spin-rotation constants.
 Leave Link  601 at Mon Jul 28 15:09:09 2014, MaxMem=   10485760 cpu:       0.6
 (Enter /home/dbchem/mapete/chem/g09-C.01/G09-C.01-ifort-static/g09/l9999.exe)
 1\1\GINC-ECON-N17\SP\RB3LYP\Gen\C4H2\KEC30\28-Jul-2014\0\\#p nmr=(giao
 ,spinspin,mixed) b3lyp/cc-pvdz scrf=(smd,solvent=chloroform) output=pi
 ckett geom=connectivity\\Diacetylene\\0,1\C,0,1.39717996,-0.55928277,0
 .92863216\C,0,2.59217996,-0.55928277,0.92863216\H,0,0.33617996,-0.5592
 8277,0.92863216\C,0,4.13217996,-0.55928277,0.92863216\C,0,5.32717996,-
 0.55928277,0.92863216\H,0,6.38817996,-0.55928277,0.92863216\\Version=E
 M64L-G09RevC.01\State=1-SGG\HF=-153.5008551\RMSD=3.572e-09\Dipole=0.,0
 .,0.\Quadrupole=7.6343733,-3.8171866,-3.8171866,0.,0.,0.\PG=D*H [C*(H1
 C1C1.C1C1H1)]\\@
 DoSRE=F DoSRN=F DoDH=F DoFC=F DoNQ=T DoQCD=F DoSCD=F
 Inertia tensor (amu-bohr**2): 
                 1             2             3 
      1   0.513462D+03  0.000000D+00  0.000000D+00
      2   0.000000D+00  0.513462D+03  0.000000D+00
      3   0.000000D+00  0.000000D+00  0.000000D+00
 Principal inertia moments (amu-bohr**2):
 Iaa = 0.000000D+00 Ibb= 0.513462D+03 Icc= 0.513462D+03
 Rotation matrix to Principal Axis frame: 
                 1             2             3 
      1   0.000000D+00  0.100000D+01  0.000000D+00
      2   0.000000D+00  0.000000D+00  0.100000D+01
      3   0.100000D+01  0.000000D+00  0.000000D+00
                Principal axis orientation:                
 ---------------------------------------------------------------------
 Center     Atomic                     Coordinates (Angstroms)
 Number     Number                        X           Y           Z
 ---------------------------------------------------------------------
      1          6                    1.965000   -0.000000    0.000000
      2          6                    0.770000   -0.000000    0.000000
      3          1                    3.026000   -0.000000    0.000000
      4          6                   -0.770000    0.000000    0.000000
      5          6                   -1.965000    0.000000    0.000000
      6          1                   -3.026000    0.000000    0.000000
 ---------------------------------------------------------------------
 Rotational constants (MHZ):
      0.0000000   3514.8497969   3514.8497969
 Nuclear quadrupole coupling constants [Chi] (MHz):
  1  C(12) 
   aa=     0.0000   ba=     0.0000   ca=     0.0000
   ab=     0.0000   bb=     0.0000   cb=     0.0000
   ac=     0.0000   bc=     0.0000   cc=     0.0000
  2  C(12) 
   aa=     0.0000   ba=     0.0000   ca=     0.0000
   ab=     0.0000   bb=     0.0000   cb=     0.0000
   ac=     0.0000   bc=     0.0000   cc=     0.0000
  3  H(2)  
   aa=     0.2448   ba=    -0.0000   ca=     0.0000
   ab=    -0.0000   bb=    -0.1224   cb=     0.0000
   ac=     0.0000   bc=     0.0000   cc=    -0.1224
  4  C(12) 
   aa=     0.0000   ba=     0.0000   ca=     0.0000
   ab=     0.0000   bb=     0.0000   cb=     0.0000
   ac=     0.0000   bc=     0.0000   cc=     0.0000
  5  C(12) 
   aa=     0.0000   ba=     0.0000   ca=     0.0000
   ab=     0.0000   bb=     0.0000   cb=     0.0000
   ac=     0.0000   bc=     0.0000   cc=     0.0000
  6  H(2)  
   aa=     0.2448   ba=    -0.0000   ca=     0.0000
   ab=    -0.0000   bb=    -0.1224   cb=     0.0000
   ac=     0.0000   bc=     0.0000   cc=    -0.1224
 Dipole moment (Debye):
     -0.0000000     -0.0000000     -0.0000000  Tot=      0.0000000

 Atoms with significant hyperfine tensors:  H3-2,H6-2

--------------------------------------------------------------------------------
 Diacetylene                                             
   99  1000  50  0.1760E-11  0.1000E+07  0.1000E+01 1.0000000000
a 33  1  0  0  0  1  1   1  0  1  0
     10000   0.00000000E+00    0.0000E+00   /  A  /
     20000   0.35148498E+04    0.0000E+00   /  B  /
     30000   0.35148498E+04    0.0000E+00   /  C  /
 110010000   0.36715072E+00    0.0000E+00   /  (3 H-2) 3/2*Chi_aa              /
 220010000   0.36715072E+00    0.0000E+00   /  (6 H-2) 3/2*Chi_aa              /
--------------------------------------------------------------------------------



 IF I HAVE SEEN FARTHER, IT IS BY STANDING ON THE
 SHOULDERS OF GIANTS. -- SIR ISAAC NEWTON
 Leave Link 9999 at Mon Jul 28 15:09:10 2014, MaxMem=   10485760 cpu:       0.1
 Job cpu time:  0 days  0 hours  2 minutes 39.6 seconds.
 File lengths (MBytes):  RWF=     34 Int=      0 D2E=      0 Chk=      2 Scr=      1
 Normal termination of Gaussian 09 at Mon Jul 28 15:09:10 2014.
 (Enter /home/dbchem/mapete/chem/g09-C.01/G09-C.01-ifort-static/g09/l1.exe)
 Link1:  Proceeding to internal job step number  2.
 ----------------------------------------------------------------------
 #P Geom=AllCheck Guess=TCheck SCRF=Check GenChk RB3LYP/ChkBas NMR=Read
 FC IOp(3/6=22)
 ----------------------------------------------------------------------
 1/29=7,38=1,40=1/1;
 2/12=2,40=1/2;
 3/5=7,6=22,11=2,14=-4,16=1,25=1,30=1,67=1,70=2,72=7,74=-5,82=7,116=1/1,2,8,3;
 4/5=101/1;
 5/5=2,53=7/2;
 8/6=1,10=90,11=11/1;
 10/13=100,45=16,47=4/2;
 6/7=2,8=2,9=2,10=2,28=1/1;
 99/9=1,10=1024/99;
 Leave Link    1 at Mon Jul 28 15:09:10 2014, MaxMem=   10485760 cpu:       0.2
 (Enter /home/dbchem/mapete/chem/g09-C.01/G09-C.01-ifort-static/g09/l101.exe)
 Structure from the checkpoint file:  d2diacetylenenmr.chk
 -----------
 Diacetylene
 -----------
 Charge =  0 Multiplicity = 1
 Z-Matrix found in file.
 C,0,1.39717996,-0.55928277,0.92863216
 C,0,2.59217996,-0.55928277,0.92863216
 H,0,0.33617996,-0.55928277,0.92863216
 C,0,4.13217996,-0.55928277,0.92863216
 C,0,5.32717996,-0.55928277,0.92863216
 H,0,6.38817996,-0.55928277,0.92863216
 Recover connectivity data from disk.
 NAtoms=      6 NQM=        0 NQMF=       0 NMMI=      6 NMMIF=      0
                NMic=       0 NMicF=      0.
                    Isotopes and Nuclear Properties:
 (Nuclear quadrupole moments (NQMom) in fm**2, nuclear magnetic moments (NMagM)
  in nuclear magnetons)

  Atom         1           2           3           4           5           6
 IAtWgt=          12          12           2          12          12           2
 AtmWgt=  12.0000000  12.0000000   2.0141018  12.0000000  12.0000000   2.0141018
 NucSpn=           0           0           2           0           0           2
 AtZEff=  -3.6000000  -3.6000000  -1.0000000  -3.6000000  -3.6000000  -1.0000000
 NQMom=    0.0000000   0.0000000   0.2860000   0.0000000   0.0000000   0.2860000
 NMagM=    0.0000000   0.0000000   0.8574380   0.0000000   0.0000000   0.8574380
 Leave Link  101 at Mon Jul 28 15:09:10 2014, MaxMem=   10485760 cpu:       0.1
 (Enter /home/dbchem/mapete/chem/g09-C.01/G09-C.01-ifort-static/g09/l202.exe)
                          Input orientation:                          
 ---------------------------------------------------------------------
 Center     Atomic      Atomic             Coordinates (Angstroms)
 Number     Number       Type             X           Y           Z
 ---------------------------------------------------------------------
      1          6           0        1.397180   -0.559283    0.928632
      2          6           0        2.592180   -0.559283    0.928632
      3          1           0        0.336180   -0.559283    0.928632
      4          6           0        4.132180   -0.559283    0.928632
      5          6           0        5.327180   -0.559283    0.928632
      6          1           0        6.388180   -0.559283    0.928632
 ---------------------------------------------------------------------
                    Distance matrix (angstroms):
                    1          2          3          4          5
     1  C    0.000000
     2  C    1.195000   0.000000
     3  H    1.061000   2.256000   0.000000
     4  C    2.735000   1.540000   3.796000   0.000000
     5  C    3.930000   2.735000   4.991000   1.195000   0.000000
     6  H    4.991000   3.796000   6.052000   2.256000   1.061000
                    6
     6  H    0.000000
 Stoichiometry    C4H2
 Framework group  D*H[C*(HCC.CCH)]
 Deg. of freedom     3
 Full point group                 D*H     NOp   8
 RotChk:  IX=0 Diff= 8.63D-17
 Largest Abelian subgroup         D2H     NOp   8
 Largest concise Abelian subgroup C2      NOp   2
                         Standard orientation:                         
 ---------------------------------------------------------------------
 Center     Atomic      Atomic             Coordinates (Angstroms)
 Number     Number       Type             X           Y           Z
 ---------------------------------------------------------------------
      1          6           0        0.000000    0.000000    1.965000
      2          6           0        0.000000    0.000000    0.770000
      3          1           0        0.000000    0.000000    3.026000
      4          6           0        0.000000    0.000000   -0.770000
      5          6           0        0.000000    0.000000   -1.965000
      6          1           0        0.000000    0.000000   -3.026000
 ---------------------------------------------------------------------
 Rotational constants (GHZ):      0.0000000      3.5148498      3.5148498
 Leave Link  202 at Mon Jul 28 15:09:10 2014, MaxMem=   10485760 cpu:       0.0
 (Enter /home/dbchem/mapete/chem/g09-C.01/G09-C.01-ifort-static/g09/l301.exe)
 Basis read from chk: d2diacetylenenmr.chk (5D, 7F)
 No pseudopotential information found on chk file.
 There are    17 symmetry adapted basis functions of AG  symmetry.
 There are     2 symmetry adapted basis functions of B1G symmetry.
 There are     7 symmetry adapted basis functions of B2G symmetry.
 There are     7 symmetry adapted basis functions of B3G symmetry.
 There are     2 symmetry adapted basis functions of AU  symmetry.
 There are    17 symmetry adapted basis functions of B1U symmetry.
 There are     7 symmetry adapted basis functions of B2U symmetry.
 There are     7 symmetry adapted basis functions of B3U symmetry.
 Integral buffers will be    131072 words long.
 Raffenetti 2 integral format.
 Two-electron integral symmetry is turned on.
    66 basis functions,   154 primitive gaussians,    70 cartesian basis functions
    13 alpha electrons       13 beta electrons
       nuclear repulsion energy        74.8645013381 Hartrees.
 IExCor=  402 DFT=T Ex+Corr=B3LYP ExCW=0 ScaHFX=  0.200000
 ScaDFX=  0.800000  0.720000  1.000000  0.810000 ScalE2=  1.000000  1.000000
 IRadAn=      0 IRanWt=     -1 IRanGd=            0 ICorTp=0
 NAtoms=    6 NActive=    6 NUniq=    3 SFac= 4.00D+00 NAtFMM=   60 NAOKFM=F Big=F
 No density basis found on file 20724.
 ------------------------------------------------------------------------------
 Polarizable Continuum Model (PCM)
 =================================
 Model                : PCM.
 Atomic radii         : SMD-Coulomb.
 Polarization charges : Total charges.
 Charge compensation  : None.
 Solution method      : Matrix inversion.
 Cavity type          : VdW (van der Waals Surface) (Alpha=1.000).
 Cavity algorithm     : GePol (No added spheres)
                        Default sphere list used, NSphG=    6.
                        Lebedev-Laikov grids with approx.  5.0 points / Ang**2.
                        Smoothing algorithm: Karplus/York (Gamma=1.0000).
                        Polarization charges: spherical gaussians, with
                                              point-specific exponents (IZeta= 3).
                        Self-potential: point-specific (ISelfS= 7).
                        Self-field    : sphere-specific E.n sum rule (ISelfD= 2).
 Solvent              : Chloroform, Eps=   4.711300 Eps(inf)=   2.090627
 ------------------------------------------------------------------------------
 Spheres list:
 ISph  on   Nord    Re0     Alpha      Xe            Ye            Ze
    1   C      1    1.850   1.000      0.000000      0.000000      1.965000
    2   C      2    1.850   1.000      0.000000      0.000000      0.770000
    3   H      3    1.200   1.000      0.000000      0.000000      3.026000
    4   C      4    1.850   1.000      0.000000      0.000000     -0.770000
    5   C      5    1.850   1.000      0.000000      0.000000     -1.965000
    6   H      6    1.200   1.000      0.000000      0.000000     -3.026000
 ------------------------------------------------------------------------------
 GePol: Number of generator spheres                  =       6
 GePol: Total number of spheres                      =       6
 GePol: Number of exposed spheres                    =       6 (100.00%)
 GePol: Number of points                             =     794
 GePol: Average weight of points                     =       0.12
 GePol: Minimum weight of points                     =   0.64D-04
 GePol: Maximum weight of points                     =    0.17992
 GePol: Number of points with low weight             =      56
 GePol: Fraction of low-weight points (<1% of avg)   =       7.05%
 GePol: Cavity surface area                          =     91.815 Ang**2
 GePol: Cavity volume                                =     69.031 Ang**3
 ------------------------------------------------------------------------------
 Atomic radii for non-electrostatic terms: SMD-CDS.
 ------------------------------------------------------------------------------
 PCM non-electrostatic energy =         0.0009419296 Hartrees.
 Nuclear repulsion after PCM non-electrostatic terms =       74.8654432677 Hartrees.
 Leave Link  301 at Mon Jul 28 15:09:10 2014, MaxMem=   10485760 cpu:       0.2
 (Enter /home/dbchem/mapete/chem/g09-C.01/G09-C.01-ifort-static/g09/l302.exe)
 NPDir=0 NMtPBC=     1 NCelOv=     1 NCel=       1 NClECP=     1 NCelD=      1
         NCelK=      1 NCelE2=     1 NClLst=     1 CellRange=     0.0.
 One-electron integrals computed using PRISM.
 One-electron integral symmetry used in STVInt
 PrsmSu:  requested number of processors reduced to:   3 ShMem   1 Linda.
 NBasis=    66 RedAO= T  NBF=    17     2     7     7     2    17     7     7
 NBsUse=    66 1.00D-06 NBFU=    17     2     7     7     2    17     7     7
 Precomputing XC quadrature grid using
 IXCGrd= 2 IRadAn=           0 IRanWt=          -1 IRanGd=           0 AccXCQ= 0.00D+00.
 NRdTot=     376 NPtTot=       47352 NUsed=       50075 NTot=       50107
 NSgBfM=    70    70    70    70    70 NAtAll=     6     6.
 Leave Link  302 at Mon Jul 28 15:09:10 2014, MaxMem=   10485760 cpu:       0.9
 (Enter /home/dbchem/mapete/chem/g09-C.01/G09-C.01-ifort-static/g09/l308.exe)
 Leave Link  308 at Mon Jul 28 15:09:10 2014, MaxMem=   10485760 cpu:       0.1
 (Enter /home/dbchem/mapete/chem/g09-C.01/G09-C.01-ifort-static/g09/l303.exe)
 DipDrv:  MaxL=1.
 Leave Link  303 at Mon Jul 28 15:09:10 2014, MaxMem=   10485760 cpu:       0.1
 (Enter /home/dbchem/mapete/chem/g09-C.01/G09-C.01-ifort-static/g09/l401.exe)
 Initial guess read from the checkpoint file:  d2diacetylenenmr.chk
 B after Tr=     0.000000    0.000000    0.000000
         Rot=    1.000000    0.000000    0.000000    0.000000 Ang=   0.00 deg.
 Guess basis will be translated and rotated to current coordinates.
 Initial guess orbital symmetries:
       Occupied  (SGG) (SGU) (SGU) (SGG) (SGG) (SGU) (SGG) (SGU)
                 (SGG) (PIU) (PIU) (PIG) (PIG)
       Virtual   (PIU) (PIU) (SGU) (SGG) (PIG) (PIG) (SGU) (SGG)
                 (SGU) (PIU) (PIU) (SGG) (PIG) (PIG) (SGU) (PIU)
                 (PIU) (SGG) (PIG) (PIG) (SGU) (SGG) (SGG) (DLTG)
                 (DLTG) (PIU) (PIU) (SGU) (DLTU) (DLTU) (SGU) (SGG)
                 (PIG) (PIG) (DLTG) (DLTG) (SGU) (PIU) (PIU) (DLTU)
                 (DLTU) (PIG) (PIG) (SGG) (SGU) (PIU) (PIU) (SGG)
                 (SGG) (PIG) (PIG) (SGU) (SGU)
 The electronic state of the initial guess is 1-SGG.
 Leave Link  401 at Mon Jul 28 15:09:11 2014, MaxMem=   10485760 cpu:       0.3
 (Enter /home/dbchem/mapete/chem/g09-C.01/G09-C.01-ifort-static/g09/l502.exe)
 Closed shell SCF:
 Requested convergence on RMS density matrix=1.00D-08 within 128 cycles.
 Requested convergence on MAX density matrix=1.00D-06.
 Requested convergence on             energy=1.00D-06.
 No special actions if energy rises.
 Using DIIS extrapolation, IDIIS=  1040.
 Integral symmetry usage will be decided dynamically.
        50008 words used for storage of precomputed grid.
 Keep R1 ints in memory in canonical form, NReq=6887228.
 IEnd=       84078 IEndB=       84078 NGot=    10485760 MDV=     7334410
 LenX=     7334410 LenY=     7329069
 Symmetry not used in FoFDir.
 MinBra= 0 MaxBra= 2 Meth= 1.
 IRaf=       0 NMat=   1 IRICut=       1 DoRegI=T DoRafI=F ISym2E= 0 JSym2E=0.

 Cycle   1  Pass 1  IDiag  1:
 CoulSu:  requested number of processors reduced to:   2 ShMem   1 Linda.
 CoulSu:  requested number of processors reduced to:   2 ShMem   1 Linda.
 CoulSu:  requested number of processors reduced to:   3 ShMem   1 Linda.
 E= -153.476841192414    
 DIIS: error= 6.33D-03 at cycle   1 NSaved=   1.
 NSaved= 1 IEnMin= 1 EnMin= -153.476841192414     IErMin= 1 ErrMin= 6.33D-03
 ErrMax= 6.33D-03 EMaxC= 1.00D-01 BMatC= 1.04D-03 BMatP= 1.04D-03
 IDIUse=3 WtCom= 9.37D-01 WtEn= 6.33D-02
 Coeff-Com:  0.100D+01
 Coeff-En:   0.100D+01
 Coeff:      0.100D+01
 Gap=     0.264 Goal=   None    Shift=    0.000
 GapD=    0.264 DampG=1.000 DampE=1.000 DampFc=1.0000 IDamp=-1.
 RMSDP=2.37D-03 MaxDP=2.85D-02              OVMax= 9.54D-03

 Cycle   2  Pass 1  IDiag  1:
 CoulSu:  requested number of processors reduced to:   3 ShMem   1 Linda.
 E= -153.477839322027     Delta-E=       -0.000998129613 Rises=F Damp=F
 DIIS: error= 1.53D-03 at cycle   2 NSaved=   2.
 NSaved= 2 IEnMin= 2 EnMin= -153.477839322027     IErMin= 2 ErrMin= 1.53D-03
 ErrMax= 1.53D-03 EMaxC= 1.00D-01 BMatC= 1.04D-04 BMatP= 1.04D-03
 IDIUse=3 WtCom= 9.85D-01 WtEn= 1.53D-02
 Coeff-Com:  0.160D+00 0.840D+00
 Coeff-En:   0.000D+00 0.100D+01
 Coeff:      0.158D+00 0.842D+00
 Gap=     0.263 Goal=   None    Shift=    0.000
 RMSDP=8.02D-04 MaxDP=1.28D-02 DE=-9.98D-04 OVMax= 3.84D-03

 Cycle   3  Pass 1  IDiag  1:
 CoulSu:  requested number of processors reduced to:   3 ShMem   1 Linda.
 E= -153.477944609497     Delta-E=       -0.000105287470 Rises=F Damp=F
 DIIS: error= 7.12D-04 at cycle   3 NSaved=   3.
 NSaved= 3 IEnMin= 3 EnMin= -153.477944609497     IErMin= 3 ErrMin= 7.12D-04
 ErrMax= 7.12D-04 EMaxC= 1.00D-01 BMatC= 2.27D-05 BMatP= 1.04D-04
 IDIUse=3 WtCom= 9.93D-01 WtEn= 7.12D-03
 Coeff-Com: -0.498D-02 0.311D+00 0.694D+00
 Coeff-En:   0.000D+00 0.371D-01 0.963D+00
 Coeff:     -0.495D-02 0.309D+00 0.696D+00
 Gap=     0.264 Goal=   None    Shift=    0.000
 RMSDP=3.09D-04 MaxDP=4.83D-03 DE=-1.05D-04 OVMax= 1.28D-03

 Cycle   4  Pass 1  IDiag  1:
 CoulSu:  requested number of processors reduced to:   3 ShMem   1 Linda.
 E= -153.477970876628     Delta-E=       -0.000026267131 Rises=F Damp=F
 DIIS: error= 1.70D-04 at cycle   4 NSaved=   4.
 NSaved= 4 IEnMin= 4 EnMin= -153.477970876628     IErMin= 4 ErrMin= 1.70D-04
 ErrMax= 1.70D-04 EMaxC= 1.00D-01 BMatC= 1.09D-06 BMatP= 2.27D-05
 IDIUse=3 WtCom= 9.98D-01 WtEn= 1.70D-03
 Coeff-Com: -0.502D-02 0.136D+00 0.334D+00 0.535D+00
 Coeff-En:   0.000D+00 0.000D+00 0.000D+00 0.100D+01
 Coeff:     -0.501D-02 0.136D+00 0.333D+00 0.536D+00
 Gap=     0.264 Goal=   None    Shift=    0.000
 RMSDP=2.01D-05 MaxDP=2.74D-04 DE=-2.63D-05 OVMax= 5.45D-04

 Cycle   5  Pass 1  IDiag  1:
 CoulSu:  requested number of processors reduced to:   3 ShMem   1 Linda.
 E= -153.477971419237     Delta-E=       -0.000000542609 Rises=F Damp=F
 DIIS: error= 1.05D-04 at cycle   5 NSaved=   5.
 NSaved= 5 IEnMin= 5 EnMin= -153.477971419237     IErMin= 5 ErrMin= 1.05D-04
 ErrMax= 1.05D-04 EMaxC= 1.00D-01 BMatC= 5.02D-07 BMatP= 1.09D-06
 IDIUse=3 WtCom= 9.99D-01 WtEn= 1.05D-03
 Coeff-Com: -0.268D-02 0.355D-01 0.984D-01 0.398D+00 0.470D+00
 Coeff-En:   0.000D+00 0.000D+00 0.000D+00 0.367D+00 0.633D+00
 Coeff:     -0.267D-02 0.355D-01 0.983D-01 0.398D+00 0.471D+00
 Gap=     0.264 Goal=   None    Shift=    0.000
 RMSDP=1.01D-05 MaxDP=1.19D-04 DE=-5.43D-07 OVMax= 2.24D-04

 Cycle   6  Pass 1  IDiag  1:
 CoulSu:  requested number of processors reduced to:   3 ShMem   1 Linda.
 E= -153.477971950162     Delta-E=       -0.000000530925 Rises=F Damp=F
 DIIS: error= 2.45D-06 at cycle   6 NSaved=   6.
 NSaved= 6 IEnMin= 6 EnMin= -153.477971950162     IErMin= 6 ErrMin= 2.45D-06
 ErrMax= 2.45D-06 EMaxC= 1.00D-01 BMatC= 5.17D-10 BMatP= 5.02D-07
 IDIUse=1 WtCom= 1.00D+00 WtEn= 0.00D+00
 Coeff-Com: -0.713D-04 0.735D-04 0.715D-03 0.124D-01 0.438D-01 0.943D+00
 Coeff:     -0.713D-04 0.735D-04 0.715D-03 0.124D-01 0.438D-01 0.943D+00
 Gap=     0.264 Goal=   None    Shift=    0.000
 RMSDP=1.18D-06 MaxDP=1.62D-05 DE=-5.31D-07 OVMax= 4.44D-06

 Cycle   7  Pass 1  IDiag  1:
 CoulSu:  requested number of processors reduced to:   3 ShMem   1 Linda.
 E= -153.477971950640     Delta-E=       -0.000000000478 Rises=F Damp=F
 DIIS: error= 6.18D-07 at cycle   7 NSaved=   7.
 NSaved= 7 IEnMin= 7 EnMin= -153.477971950640     IErMin= 7 ErrMin= 6.18D-07
 ErrMax= 6.18D-07 EMaxC= 1.00D-01 BMatC= 1.36D-11 BMatP= 5.17D-10
 IDIUse=1 WtCom= 1.00D+00 WtEn= 0.00D+00
 Coeff-Com:  0.157D-04-0.354D-03-0.949D-03-0.359D-02 0.300D-02 0.920D-01
 Coeff-Com:  0.910D+00
 Coeff:      0.157D-04-0.354D-03-0.949D-03-0.359D-02 0.300D-02 0.920D-01
 Coeff:      0.910D+00
 Gap=     0.264 Goal=   None    Shift=    0.000
 RMSDP=9.62D-08 MaxDP=1.18D-06 DE=-4.78D-10 OVMax= 1.21D-06

 Cycle   8  Pass 1  IDiag  1:
 CoulSu:  requested number of processors reduced to:   3 ShMem   1 Linda.
 E= -153.477971950655     Delta-E=       -0.000000000015 Rises=F Damp=F
 DIIS: error= 1.62D-08 at cycle   8 NSaved=   8.
 NSaved= 8 IEnMin= 8 EnMin= -153.477971950655     IErMin= 8 ErrMin= 1.62D-08
 ErrMax= 1.62D-08 EMaxC= 1.00D-01 BMatC= 1.50D-14 BMatP= 1.36D-11
 IDIUse=1 WtCom= 1.00D+00 WtEn= 0.00D+00
 Coeff-Com:  0.850D-06-0.572D-05-0.233D-04-0.161D-03-0.224D-03-0.599D-02
 Coeff-Com:  0.168D-02 0.100D+01
 Coeff:      0.850D-06-0.572D-05-0.233D-04-0.161D-03-0.224D-03-0.599D-02
 Coeff:      0.168D-02 0.100D+01
 Gap=     0.264 Goal=   None    Shift=    0.000
 RMSDP=6.41D-09 MaxDP=7.93D-08 DE=-1.51D-11 OVMax= 3.17D-08

 CoulSu:  requested number of processors reduced to:   3 ShMem   1 Linda.
 Error on total polarization charges =  0.02012
 SCF Done:  E(RB3LYP) =  -153.477971951     A.U. after    8 cycles
             Convg  =    0.6407D-08             -V/T =  2.0078
 KE= 1.522862888301D+02 PE=-5.054089612112D+02 EE= 1.247792571627D+02
 SMD-CDS (non-electrostatic) energy       (kcal/mol) =       0.59
 (included in total energy above)
 Leave Link  502 at Mon Jul 28 15:09:13 2014, MaxMem=   10485760 cpu:      10.4
 (Enter /home/dbchem/mapete/chem/g09-C.01/G09-C.01-ifort-static/g09/l801.exe)
 Range of M.O.s used for correlation:     1    66
 NBasis=    66 NAE=    13 NBE=    13 NFC=     0 NFV=     0
 NROrb=     66 NOA=    13 NOB=    13 NVA=    53 NVB=    53

 **** Warning!!: The largest alpha MO coefficient is  0.39759695D+02

 Leave Link  801 at Mon Jul 28 15:09:13 2014, MaxMem=   10485760 cpu:       0.0
 (Enter /home/dbchem/mapete/chem/g09-C.01/G09-C.01-ifort-static/g09/l1002.exe)
 Minotr:  Closed shell wavefunction.
          IDoAtm=111111
 NEqPCM:  Using equilibrium solvation (IEInf=0, Eps=   4.7113, EpsInf=   2.0906)
          Direct CPHF calculation.
          Differentiating once with respect to magnetic field using GIAOs.
          Differentiating once with respect to nuclear magnetic moments.
          Differentiating once with respect to Fermi-contact and electric field gradient.
          Electric field/nuclear overlap derivatives assumed to be zero.
          Using symmetry in CPHF.
          Requested convergence is 1.0D-08 RMS, and 1.0D-07 maximum.
          Secondary convergence is 1.0D-12 RMS, and 1.0D-12 maximum.
          NewPWx=T KeepS1=F KeepF1=F KeepIn=T MapXYZ=F SortEE=F KeepMc=T.
          MDV=      10485696 using IRadAn=       0.
 Generate precomputed XC quadrature information.
          Solving linear equations simultaneously, MaxMat=       0.
 PrsmSu:  requested number of processors reduced to:   3 ShMem   1 Linda.
 FoFCou: FMM=F IPFlag=           0 FMFlag=    10101102 FMFlg1=           0
         NFxFlg=    40000000 DoJE=F BraDBF=F KetDBF=T FulRan=T
         Omega=  0.000000  0.000000  1.000000  0.000000  0.000000 ICntrl=    6100 IOpCl=  0
         NMat0=    1 NMatS0=    1 NMatT0=    0 NMatD0=    1 NMtDS0=    0 NMtDT0=    0
         I1Cent=           7 NGrid=         800.
 Symmetry not used in FoFCou.
 Integrals replicated using symmetry in FoFDir.
 MinBra= 0 MaxBra= 2 Meth= 1.
 IRaf=       0 NMat=  12 IRICut=       1 DoRegI=T DoRafI=F ISym2E= 2 JSym2E=2.
          There are    12 degrees of freedom in the 1st order CPHF.  IDoFFX=0.
     11 vectors produced by pass  0 Test12= 5.74D-15 8.33D-09 XBig12= 1.35D+01 1.67D+00.
 AX will form    11 AO Fock derivatives at one time.
     11 vectors produced by pass  1 Test12= 5.74D-15 8.33D-09 XBig12= 4.19D-02 7.33D-02.
     11 vectors produced by pass  2 Test12= 5.74D-15 8.33D-09 XBig12= 5.28D-05 3.68D-03.
     11 vectors produced by pass  3 Test12= 5.74D-15 8.33D-09 XBig12= 4.97D-08 6.28D-05.
     10 vectors produced by pass  4 Test12= 5.74D-15 8.33D-09 XBig12= 2.07D-11 1.41D-06.
      7 vectors produced by pass  5 Test12= 5.74D-15 8.33D-09 XBig12= 1.15D-14 4.27D-08.
 Inverted reduced A of dimension    61 with in-core refinement.
 Calculating GIAO nuclear magnetic shielding tensors.
 SCF GIAO Magnetic shielding tensor (ppm):
      1  C    Isotropic =   132.2597   Anisotropy =   223.1226
   XX=    57.8855   YX=     0.0000   ZX=     0.0000
   XY=     0.0000   YY=    57.8855   ZY=     0.0000
   XZ=     0.0000   YZ=    -0.0000   ZZ=   281.0081
   Eigenvalues:    57.8855    57.8855   281.0081
      2  C    Isotropic =   126.6388   Anisotropy =   237.8162
   XX=    47.3667   YX=     0.0000   ZX=     0.0000
   XY=     0.0000   YY=    47.3667   ZY=     0.0000
   XZ=    -0.0000   YZ=     0.0000   ZZ=   285.1829
   Eigenvalues:    47.3667    47.3667   285.1829
      3  H    Isotropic =    30.0047   Anisotropy =    16.0702
   XX=    24.6479   YX=     0.0000   ZX=     0.0000
   XY=     0.0000   YY=    24.6479   ZY=     0.0000
   XZ=    -0.0000   YZ=    -0.0000   ZZ=    40.7182
   Eigenvalues:    24.6479    24.6479    40.7182
      4  C    Isotropic =   126.6388   Anisotropy =   237.8162
   XX=    47.3667   YX=     0.0000   ZX=    -0.0000
   XY=     0.0000   YY=    47.3667   ZY=     0.0000
   XZ=    -0.0000   YZ=     0.0000   ZZ=   285.1829
   Eigenvalues:    47.3667    47.3667   285.1829
      5  C    Isotropic =   132.2597   Anisotropy =   223.1226
   XX=    57.8855   YX=    -0.0000   ZX=     0.0000
   XY=    -0.0000   YY=    57.8855   ZY=     0.0000
   XZ=     0.0000   YZ=    -0.0000   ZZ=   281.0081
   Eigenvalues:    57.8855    57.8855   281.0081
      6  H    Isotropic =    30.0047   Anisotropy =    16.0702
   XX=    24.6479   YX=    -0.0000   ZX=     0.0000
   XY=    -0.0000   YY=    24.6479   ZY=     0.0000
   XZ=    -0.0000   YZ=    -0.0000   ZZ=    40.7182
   Eigenvalues:    24.6479    24.6479    40.7182
 Max diff in PS couplings:  IJMax=     5     2 Diff= 1.80D-07 IJMaxR=     6     2 DiffR= 6.46D-06
          There are    18 degrees of freedom in the 1st order CPHF.  IDoFFX=0.
     15 vectors produced by pass  0 Test12= 3.83D-15 5.56D-09 XBig12= 5.98D+00 1.37D+00.
     15 vectors produced by pass  1 Test12= 3.83D-15 5.56D-09 XBig12= 9.32D-02 1.30D-01.
     15 vectors produced by pass  2 Test12= 3.83D-15 5.56D-09 XBig12= 6.32D-04 1.12D-02.
     15 vectors produced by pass  3 Test12= 3.83D-15 5.56D-09 XBig12= 7.62D-06 8.39D-04.
     15 vectors produced by pass  4 Test12= 3.83D-15 5.56D-09 XBig12= 3.30D-08 4.00D-05.
     13 vectors produced by pass  5 Test12= 3.83D-15 5.56D-09 XBig12= 2.02D-10 4.20D-06.
      8 vectors produced by pass  6 Test12= 3.83D-15 5.56D-09 XBig12= 6.22D-13 1.82D-07.
      1 vectors produced by pass  7 Test12= 3.83D-15 5.56D-09 XBig12= 2.30D-15 1.32D-08..
 Inverted reduced A of dimension    97 with in-core refinement.
 Max diff in SD couplings:  IJMax=     6     1 Diff= 1.67D-07 IJMaxR=     6     1 DiffR= 1.55D-05
 Fermi Contact contribution taken from checkpoint file:
 d2diacetylenenmr.chk
 There are a total of       47060 grid points.
 ElSum from          density=       52.0000032070
 Fermi Contact (FC) contribution to K (Hz):
                1             2             3             4             5 
      1  0.000000D+00
      2  0.106760D+03  0.000000D+00
      3  0.352737D+02  0.696053D+01  0.000000D+00
      4  0.139144D+02  0.847146D+02  0.995627D+00  0.000000D+00
      5  0.268223D+01  0.139144D+02 -0.692992D-01  0.106760D+03  0.000000D+00
      6 -0.692992D-01  0.995627D+00  0.431132D-01  0.696053D+01  0.352737D+02
                6 
      6  0.000000D+00
 Fermi Contact (FC) contribution to J (Hz):
                1             2             3             4             5 
      1  0.000000D+00
      2  0.210694D+03  0.000000D+00
      3  0.424889D+02  0.838429D+01  0.000000D+00
      4  0.274604D+02  0.167186D+03  0.119928D+01  0.000000D+00
      5  0.529344D+01  0.274604D+02 -0.834742D-01  0.210694D+03  0.000000D+00
      6 -0.834742D-01  0.119928D+01  0.316969D-01  0.838429D+01  0.424889D+02
                6 
      6  0.000000D+00
 Spin-dipolar (SD) contribution to K (Hz):
                1             2             3             4             5 
      1  0.000000D+00
      2  0.489324D+01  0.000000D+00
      3  0.113125D+00  0.726183D-01  0.000000D+00
      4 -0.565443D+00  0.400405D+00  0.125227D-01  0.000000D+00
      5  0.152906D+01 -0.565443D+00  0.107604D-01  0.489324D+01  0.000000D+00
      6  0.107604D-01  0.125227D-01  0.715461D-02  0.726183D-01  0.113125D+00
                6 
      6  0.000000D+00
 Spin-dipolar (SD) contribution to J (Hz):
                1             2             3             4             5 
      1  0.000000D+00
      2  0.965692D+01  0.000000D+00
      3  0.136265D+00  0.874722D-01  0.000000D+00
      4 -0.111592D+01  0.790210D+00  0.150842D-01  0.000000D+00
      5  0.301765D+01 -0.111592D+01  0.129614D-01  0.965692D+01  0.000000D+00
      6  0.129614D-01  0.150842D-01  0.526007D-02  0.874722D-01  0.136265D+00
                6 
      6  0.000000D+00
 Paramagnetic spin-orbit (PSO) contribution to K (Hz):
                1             2             3             4             5 
      1  0.000000D+00
      2  0.309325D+01  0.000000D+00
      3 -0.220999D+00  0.586510D+00  0.000000D+00
      4 -0.420796D+00 -0.938119D+00  0.745028D-02  0.000000D+00
      5  0.227143D+01 -0.420796D+00  0.177439D+00  0.309325D+01  0.000000D+00
      6  0.177439D+00  0.745028D-02  0.336282D-01  0.586510D+00 -0.220999D+00
                6 
      6  0.000000D+00
 Paramagnetic spin-orbit (PSO) contribution to J (Hz):
                1             2             3             4             5 
      1  0.000000D+00
      2  0.610460D+01  0.000000D+00
      3 -0.266204D+00  0.706480D+00  0.000000D+00
      4 -0.830451D+00 -0.185140D+01  0.897422D-02  0.000000D+00
      5  0.448272D+01 -0.830451D+00  0.213734D+00  0.610460D+01  0.000000D+00
      6  0.213734D+00  0.897422D-02  0.247235D-01  0.706480D+00 -0.266204D+00
                6 
      6  0.000000D+00
 Diamagnetic spin-orbit (DSO) contribution to K (Hz):
                1             2             3             4             5 
      1  0.000000D+00
      2  0.324306D-01  0.000000D+00
      3  0.551345D-01 -0.162075D+00  0.000000D+00
      4 -0.624573D-01  0.103977D+00 -0.549682D-01  0.000000D+00
      5 -0.597099D-01 -0.624573D-01 -0.467852D-01  0.324306D-01  0.000000D+00
      6 -0.467852D-01 -0.549682D-01 -0.373890D-01 -0.162075D+00  0.551345D-01
                6 
      6  0.000000D+00
 Diamagnetic spin-orbit (DSO) contribution to J (Hz):
                1             2             3             4             5 
      1  0.000000D+00
      2  0.640026D-01  0.000000D+00
      3  0.664121D-01 -0.195226D+00  0.000000D+00
      4 -0.123261D+00  0.205201D+00 -0.662119D-01  0.000000D+00
      5 -0.117839D+00 -0.123261D+00 -0.563550D-01  0.640026D-01  0.000000D+00
      6 -0.563550D-01 -0.662119D-01 -0.274884D-01 -0.195226D+00  0.664121D-01
                6 
      6  0.000000D+00
 Total nuclear spin-spin coupling K (Hz): 
                1             2             3             4             5 
      1  0.000000D+00
      2  0.114779D+03  0.000000D+00
      3  0.352210D+02  0.745758D+01  0.000000D+00
      4  0.128657D+02  0.842809D+02  0.960631D+00  0.000000D+00
      5  0.642301D+01  0.128657D+02  0.721150D-01  0.114779D+03  0.000000D+00
      6  0.721150D-01  0.960631D+00  0.465071D-01  0.745758D+01  0.352210D+02
                6 
      6  0.000000D+00
 Total nuclear spin-spin coupling J (Hz): 
                1             2             3             4             5 
      1  0.000000D+00
      2  0.226520D+03  0.000000D+00
      3  0.424254D+02  0.898302D+01  0.000000D+00
      4  0.253908D+02  0.166330D+03  0.115713D+01  0.000000D+00
      5  0.126760D+02  0.253908D+02  0.868660D-01  0.226520D+03  0.000000D+00
      6  0.868660D-01  0.115713D+01  0.341920D-01  0.898302D+01  0.424254D+02
                6 
      6  0.000000D+00
 End of Minotr Frequency-dependent properties file   721 does not exist.
 End of Minotr Frequency-dependent properties file   722 does not exist.
 Leave Link 1002 at Mon Jul 28 15:09:23 2014, MaxMem=   10485760 cpu:      36.7
 (Enter /home/dbchem/mapete/chem/g09-C.01/G09-C.01-ifort-static/g09/l601.exe)
 Copying SCF densities to generalized density rwf, IOpCl= 0 IROHF=0.

 **********************************************************************

            Population analysis using the SCF density.

 **********************************************************************

 Orbital symmetries:
       Occupied  (SGG) (SGU) (SGU) (SGG) (SGG) (SGU) (SGG) (SGU)
                 (SGG) (PIU) (PIU) (PIG) (PIG)
       Virtual   (PIU) (PIU) (SGU) (SGG) (PIG) (PIG) (SGU) (SGG)
                 (SGU) (PIU) (PIU) (SGG) (PIG) (PIG) (SGU) (PIU)
                 (PIU) (PIG) (PIG) (SGG) (SGU) (SGG) (DLTG) (DLTG)
                 (PIU) (PIU) (SGG) (DLTU) (DLTU) (SGU) (PIG) (PIG)
                 (SGU) (DLTG) (DLTG) (SGG) (PIU) (PIU) (DLTU) (DLTU)
                 (SGU) (PIG) (PIG) (SGG) (SGU) (PIU) (PIU) (SGG)
                 (PIG) (PIG) (SGU) (SGG) (SGU)
 The electronic state is 1-SGG.
 Alpha  occ. eigenvalues --  -10.23272 -10.23269 -10.20984 -10.20982  -0.79530
 Alpha  occ. eigenvalues --   -0.75979  -0.60330  -0.53739  -0.50602  -0.34831
 Alpha  occ. eigenvalues --   -0.34831  -0.28071  -0.28071
 Alpha virt. eigenvalues --   -0.01697  -0.01697   0.08348   0.10237   0.12577
 Alpha virt. eigenvalues --    0.12577   0.14953   0.29821   0.33331   0.43199
 Alpha virt. eigenvalues --    0.43199   0.44894   0.48660   0.48660   0.54802
 Alpha virt. eigenvalues --    0.58996   0.58996   0.69257   0.69257   0.69997
 Alpha virt. eigenvalues --    0.78663   0.90166   0.95833   0.95833   0.97081
 Alpha virt. eigenvalues --    0.97081   0.98690   1.04321   1.04321   1.10051
 Alpha virt. eigenvalues --    1.24371   1.24371   1.28553   1.33205   1.33205
 Alpha virt. eigenvalues --    1.40565   1.44169   1.44169   1.50388   1.50388
 Alpha virt. eigenvalues --    1.64515   1.75423   1.75423   2.00047   2.03733
 Alpha virt. eigenvalues --    2.11211   2.11211   2.39144   2.61106   2.61106
 Alpha virt. eigenvalues --    3.02485   3.12409   3.33038
          Condensed to atoms (all electrons):
              1          2          3          4          5          6
     1  C    6.468701   0.381516   0.491301  -0.525626  -0.054184  -0.000182
     2  C    0.381516   5.537155  -0.093526  -0.057633  -0.525626  -0.002738
     3  H    0.491301  -0.093526   0.604470  -0.002738  -0.000182   0.000001
     4  C   -0.525626  -0.057633  -0.002738   5.537155   0.381516  -0.093526
     5  C   -0.054184  -0.525626  -0.000182   0.381516   6.468701   0.491301
     6  H   -0.000182  -0.002738   0.000001  -0.093526   0.491301   0.604470
 Mulliken atomic charges:
              1
     1  C   -0.761526
     2  C    0.760852
     3  H    0.000674
     4  C    0.760852
     5  C   -0.761526
     6  H    0.000674
 Sum of Mulliken atomic charges =  -0.00000
 Mulliken charges with hydrogens summed into heavy atoms:
              1
     1  C   -0.760852
     2  C    0.760852
     4  C    0.760852
     5  C   -0.760852
 Sum of Mulliken charges with hydrogens summed into heavy atoms =  -0.00000
 Electronic spatial extent (au):  <R**2>=            299.5743
 Charge=             -0.0000 electrons
 Dipole moment (field-independent basis, Debye):
    X=             -0.0000    Y=              0.0000    Z=             -0.0000  Tot=              0.0000
 Quadrupole moment (field-independent basis, Debye-Ang):
   XX=            -24.3481   YY=            -24.3481   ZZ=             -9.5499
   XY=             -0.0000   XZ=              0.0000   YZ=              0.0000
 Traceless Quadrupole moment (field-independent basis, Debye-Ang):
   XX=             -4.9327   YY=             -4.9327   ZZ=              9.8654
   XY=             -0.0000   XZ=              0.0000   YZ=              0.0000
 Octapole moment (field-independent basis, Debye-Ang**2):
  XXX=             -0.0000  YYY=              0.0000  ZZZ=             -0.0000  XYY=             -0.0000
  XXY=              0.0000  XXZ=             -0.0000  XZZ=             -0.0000  YZZ=             -0.0000
  YYZ=             -0.0000  XYZ=              0.0000
 Hexadecapole moment (field-independent basis, Debye-Ang**3):
 XXXX=            -26.4967 YYYY=            -26.4967 ZZZZ=           -199.8027 XXXY=             -0.0000
 XXXZ=              0.0000 YYYX=             -0.0000 YYYZ=              0.0000 ZZZX=              0.0000
 ZZZY=              0.0000 XXYY=             -8.8322 XXZZ=            -70.9185 YYZZ=            -70.9185
 XXYZ=              0.0000 YYXZ=              0.0000 ZZXY=             -0.0000
 N-N= 7.486544326768D+01 E-N=-5.054089616708D+02  KE= 1.522862888301D+02
 Symmetry AG   KE= 7.311134688302D+01
 Symmetry B1G  KE= 6.584194079383D-34
 Symmetry B2G  KE= 2.369985945603D+00
 Symmetry B3G  KE= 2.369985945603D+00
 Symmetry AU   KE= 7.768649750731D-34
 Symmetry B1U  KE= 7.016780183020D+01
 Symmetry B2U  KE= 2.133584112856D+00
 Symmetry B3U  KE= 2.133584112856D+00
 Calculating spin-rotation constants.
 Leave Link  601 at Mon Jul 28 15:09:24 2014, MaxMem=   10485760 cpu:       2.8
 (Enter /home/dbchem/mapete/chem/g09-C.01/G09-C.01-ifort-static/g09/l9999.exe)

 Test job not archived.
 1\1\GINC-ECON-N17\SP\RB3LYP\Gen\C4H2\KEC30\28-Jul-2014\0\\#P Geom=AllC
 heck Guess=TCheck SCRF=Check GenChk RB3LYP/ChkBas NMR=ReadFC IOp(3/6=2
 2)\\Diacetylene\\0,1\C,0,1.39717996,-0.55928277,0.92863216\C,0,2.59217
 996,-0.55928277,0.92863216\H,0,0.33617996,-0.55928277,0.92863216\C,0,4
 .13217996,-0.55928277,0.92863216\C,0,5.32717996,-0.55928277,0.92863216
 \H,0,6.38817996,-0.55928277,0.92863216\\Version=EM64L-G09RevC.01\State
 =1-SGG\HF=-153.477972\RMSD=6.407e-09\Dipole=0.,0.,0.\Quadrupole=7.3346
 982,-3.6673491,-3.6673491,0.,0.,0.\PG=D*H [C*(H1C1C1.C1C1H1)]\\@
 DoSRE=F DoSRN=T DoDH=F DoFC=F DoNQ=T DoQCD=F DoSCD=F
 Inertia tensor (amu-bohr**2): 
                 1             2             3 
      1   0.513462D+03  0.000000D+00  0.000000D+00
      2   0.000000D+00  0.513462D+03  0.000000D+00
      3   0.000000D+00  0.000000D+00  0.000000D+00
 Principal inertia moments (amu-bohr**2):
 Iaa = 0.000000D+00 Ibb= 0.513462D+03 Icc= 0.513462D+03
 Rotation matrix to Principal Axis frame: 
                 1             2             3 
      1   0.000000D+00  0.100000D+01  0.000000D+00
      2   0.000000D+00  0.000000D+00  0.100000D+01
      3   0.100000D+01  0.000000D+00  0.000000D+00
                Principal axis orientation:                
 ---------------------------------------------------------------------
 Center     Atomic                     Coordinates (Angstroms)
 Number     Number                        X           Y           Z
 ---------------------------------------------------------------------
      1          6                    1.965000   -0.000000    0.000000
      2          6                    0.770000   -0.000000    0.000000
      3          1                    3.026000   -0.000000    0.000000
      4          6                   -0.770000    0.000000    0.000000
      5          6                   -1.965000    0.000000    0.000000
      6          1                   -3.026000    0.000000    0.000000
 ---------------------------------------------------------------------
 Rotational constants (MHZ):
      0.0000000   3514.8497969   3514.8497969
 nuclear spin - molecular rotation tensor [C] (MHz):
  1  C12   
   aa=     0.0000   ba=     0.0000   ca=     0.0000
   ab=     0.0000   bb=     0.0000   cb=     0.0000
   ac=     0.0000   bc=     0.0000   cc=     0.0000
  2  C12   
   aa=     0.0000   ba=     0.0000   ca=     0.0000
   ab=     0.0000   bb=     0.0000   cb=     0.0000
   ac=     0.0000   bc=     0.0000   cc=     0.0000
  3  H2    
   aa=     0.0000   ba=     0.0000   ca=     0.0000
   ab=     0.0000   bb=    -0.0001   cb=     0.0000
   ac=     0.0000   bc=     0.0000   cc=    -0.0001
  4  C12   
   aa=     0.0000   ba=     0.0000   ca=     0.0000
   ab=     0.0000   bb=     0.0000   cb=     0.0000
   ac=     0.0000   bc=     0.0000   cc=     0.0000
  5  C12   
   aa=     0.0000   ba=     0.0000   ca=     0.0000
   ab=     0.0000   bb=     0.0000   cb=     0.0000
   ac=     0.0000   bc=     0.0000   cc=     0.0000
  6  H2    
   aa=     0.0000   ba=     0.0000   ca=     0.0000
   ab=     0.0000   bb=    -0.0001   cb=     0.0000
   ac=     0.0000   bc=     0.0000   cc=    -0.0001
 Nuclear quadrupole coupling constants [Chi] (MHz):
  1  C(12) 
   aa=     0.0000   ba=     0.0000   ca=     0.0000
   ab=     0.0000   bb=     0.0000   cb=     0.0000
   ac=     0.0000   bc=     0.0000   cc=     0.0000
  2  C(12) 
   aa=     0.0000   ba=     0.0000   ca=     0.0000
   ab=     0.0000   bb=     0.0000   cb=     0.0000
   ac=     0.0000   bc=     0.0000   cc=     0.0000
  3  H(2)  
   aa=     0.2441   ba=    -0.0000   ca=     0.0000
   ab=    -0.0000   bb=    -0.1220   cb=     0.0000
   ac=     0.0000   bc=     0.0000   cc=    -0.1220
  4  C(12) 
   aa=     0.0000   ba=     0.0000   ca=     0.0000
   ab=     0.0000   bb=     0.0000   cb=     0.0000
   ac=     0.0000   bc=     0.0000   cc=     0.0000
  5  C(12) 
   aa=     0.0000   ba=     0.0000   ca=     0.0000
   ab=     0.0000   bb=     0.0000   cb=     0.0000
   ac=     0.0000   bc=     0.0000   cc=     0.0000
  6  H(2)  
   aa=     0.2441   ba=    -0.0000   ca=     0.0000
   ab=    -0.0000   bb=    -0.1220   cb=     0.0000
   ac=     0.0000   bc=     0.0000   cc=    -0.1220
 Dipole moment (Debye):
     -0.0000000     -0.0000000      0.0000000  Tot=      0.0000000

 Atoms with significant hyperfine tensors:  H3-2,H6-2

--------------------------------------------------------------------------------
 Diacetylene                                             
   99  1000  50  0.1760E-11  0.1000E+07  0.1000E+01 1.0000000000
a 33  1  0  0  0  1  1   1  0  1  0
     10000   0.00000000E+00    0.0000E+00   /  A  /
     20000   0.35148498E+04    0.0000E+00   /  B  /
     30000   0.35148498E+04    0.0000E+00   /  C  /
 110010000   0.36609752E+00    0.0000E+00   /  (3 H-2) 3/2*Chi_aa              /
 220010000   0.36609752E+00    0.0000E+00   /  (6 H-2) 3/2*Chi_aa              /
--------------------------------------------------------------------------------



 EVANS BOLDLY PUT 50 ATM. OF ETHYLENE IN A CELL WITH 25 ATM. OF OXYGEN.
 THE APPARATUS SUBSEQUENTLY BLEW UP, BUT LUCKILY NOT BEFORE HE
 OBTAINED THE SPECTRA SHOWN IN FIGURE 8.
 A.J.MERER AND R.S.MULLIKEN, CHEM.REV. 69, 645 (1969)
 Job cpu time:  0 days  0 hours  0 minutes 52.6 seconds.
 File lengths (MBytes):  RWF=     34 Int=      0 D2E=      0 Chk=      2 Scr=      1
 Normal termination of Gaussian 09 at Mon Jul 28 15:09:24 2014.

