 Entering Gaussian System, Link 0=g09
 Input=phenylaziridine_a.gjf
 Output=phenylaziridine_a.log
 Initial command:
 /home/ik1r11/g09/l1.exe /home/ik1r11/aziridines/Gau-8250.inp -scrdir=/home/ik1r11/aziridines/
 Default is to use a total of   8 processors:
                                8 via shared-memory
                                1 via Linda
 Entering Link 1 = /home/ik1r11/g09/l1.exe PID=      8251.
  
 Copyright (c) 1988,1990,1992,1993,1995,1998,2003,2009, Gaussian, Inc.
                  All Rights Reserved.
  
 This is part of the Gaussian(R) 09 program.  It is based on
 the Gaussian(R) 03 system (copyright 2003, Gaussian, Inc.),
 the Gaussian(R) 98 system (copyright 1998, Gaussian, Inc.),
 the Gaussian(R) 94 system (copyright 1995, Gaussian, Inc.),
 the Gaussian 92(TM) system (copyright 1992, Gaussian, Inc.),
 the Gaussian 90(TM) system (copyright 1990, Gaussian, Inc.),
 the Gaussian 88(TM) system (copyright 1988, Gaussian, Inc.),
 the Gaussian 86(TM) system (copyright 1986, Carnegie Mellon
 University), and the Gaussian 82(TM) system (copyright 1983,
 Carnegie Mellon University). Gaussian is a federally registered
 trademark of Gaussian, Inc.
  
 This software contains proprietary and confidential information,
 including trade secrets, belonging to Gaussian, Inc.
  
 This software is provided under written license and may be
 used, copied, transmitted, or stored only in accord with that
 written license.
  
 The following legend is applicable only to US Government
 contracts under FAR:
  
                    RESTRICTED RIGHTS LEGEND
  
 Use, reproduction and disclosure by the US Government is
 subject to restrictions as set forth in subparagraphs (a)
 and (c) of the Commercial Computer Software - Restricted
 Rights clause in FAR 52.227-19.
  
 Gaussian, Inc.
 340 Quinnipiac St., Bldg. 40, Wallingford CT 06492
  
  
 ---------------------------------------------------------------
 Warning -- This program may not be used in any manner that
 competes with the business of Gaussian, Inc. or will provide
 assistance to any competitor of Gaussian, Inc.  The licensee
 of this program is prohibited from giving any competitor of
 Gaussian, Inc. access to this program.  By using this program,
 the user acknowledges that Gaussian, Inc. is engaged in the
 business of creating and licensing software in the field of
 computational chemistry and represents and warrants to the
 licensee that it is not a competitor of Gaussian, Inc. and that
 it will not use this program in any manner prohibited above.
 ---------------------------------------------------------------
  

 Cite this work as:
 Gaussian 09, Revision A.02,
 M. J. Frisch, G. W. Trucks, H. B. Schlegel, G. E. Scuseria, 
 M. A. Robb, J. R. Cheeseman, G. Scalmani, V. Barone, B. Mennucci, 
 G. A. Petersson, H. Nakatsuji, M. Caricato, X. Li, H. P. Hratchian, 
 A. F. Izmaylov, J. Bloino, G. Zheng, J. L. Sonnenberg, M. Hada, 
 M. Ehara, K. Toyota, R. Fukuda, J. Hasegawa, M. Ishida, T. Nakajima, 
 Y. Honda, O. Kitao, H. Nakai, T. Vreven, J. A. Montgomery, Jr., 
 J. E. Peralta, F. Ogliaro, M. Bearpark, J. J. Heyd, E. Brothers, 
 K. N. Kudin, V. N. Staroverov, R. Kobayashi, J. Normand, 
 K. Raghavachari, A. Rendell, J. C. Burant, S. S. Iyengar, J. Tomasi, 
 M. Cossi, N. Rega, J. M. Millam, M. Klene, J. E. Knox, J. B. Cross, 
 V. Bakken, C. Adamo, J. Jaramillo, R. Gomperts, R. E. Stratmann, 
 O. Yazyev, A. J. Austin, R. Cammi, C. Pomelli, J. W. Ochterski, 
 R. L. Martin, K. Morokuma, V. G. Zakrzewski, G. A. Voth, 
 P. Salvador, J. J. Dannenberg, S. Dapprich, A. D. Daniels, 
 O. Farkas, J. B. Foresman, J. V. Ortiz, J. Cioslowski, 
 and D. J. Fox, Gaussian, Inc., Wallingford CT, 2009.
 
 ******************************************
 Gaussian 09:  EM64L-G09RevA.02 11-Jun-2009
                31-Dec-2013 
 ******************************************
 %NProcShared=12
 Will use up to   12 processors via shared memory.
 %Mem=12GB
 %Chk=phenylaziridine_a.chk
 Default route:  MaxDisk=100GB
 ------------------------------------------------------------
 #p opt=tight m06/cc-pvdz scf=tight integral=(grid=ultrafine)
 ------------------------------------------------------------
 1/7=10,14=-1,18=20,19=15,26=3,38=1/1,3;
 2/9=110,12=2,17=6,18=5,40=1/2;
 3/5=16,11=2,16=1,25=1,30=1,71=1,74=-54,75=-5/1,2,3;
 4//1;
 5/5=2,32=2,38=5/2;
 6/7=2,8=2,9=2,10=2,28=1/1;
 7//1,2,3,16;
 1/7=10,14=-1,18=20,19=15/3(2);
 2/9=110/2;
 99//99;
 2/9=110/2;
 3/5=16,11=2,16=1,25=1,30=1,71=1,74=-54,75=-5/1,2,3;
 4/5=5,16=3/1;
 5/5=2,32=2,38=5/2;
 7//1,2,3,16;
 1/7=10,14=-1,18=20,19=15/3(-5);
 2/9=110/2;
 6/7=2,8=2,9=2,10=2,19=2,28=1/1;
 99/9=1/99;
 Leave Link    1 at Tue Dec 31 12:40:32 2013, MaxMem= 1610612736 cpu:       1.1
 (Enter /home/ik1r11/g09/l101.exe)
 ------------------------
 Phenylaziridine geometry
 ------------------------
 Symbolic Z-matrix:
 Charge =  0 Multiplicity = 1
 C                    -1.01197  -0.6418   -0.14832 
 C                     0.15541  -0.02742   0.51257 
 H                    -1.81389  -1.09674   0.4425 
 H                    -0.84311  -1.11277  -1.12475 
 H                     0.17693  -0.02527   1.61005 
 N                    -0.90693   0.81369  -0.03683 
 H                    -0.58902   1.19119  -0.93439 
 C                     1.53497  -0.06501  -0.17079 
 C                     2.24549   1.11845  -0.37342 
 C                     2.07423  -1.28216  -0.58707 
 C                     3.49467   1.08475  -0.99279 
 H                     1.81973   2.07796  -0.04581 
 C                     3.32422  -1.31616  -1.20576 
 H                     1.51445  -2.21503  -0.42728 
 C                     4.03441  -0.13297  -1.40879 
 H                     4.05448   2.0176   -1.1531 
 H                     3.74933  -2.27602  -1.5335 
 H                     5.01939  -0.1593   -1.89708 
 
 NAtoms=     18 NQM=     18 NQMF=      0 NMic=      0 NMicF=      0 NTot=     18.
                    Isotopes and Nuclear Properties:
 (Nuclear quadrupole moments (NQMom) in fm**2, nuclear magnetic moments (NMagM)
  in nuclear magnetons)

  Atom         1           2           3           4           5           6           7           8           9          10
 IAtWgt=          12          12           1           1           1          14           1          12          12          12
 AtmWgt=  12.0000000  12.0000000   1.0078250   1.0078250   1.0078250  14.0030740   1.0078250  12.0000000  12.0000000  12.0000000
 NucSpn=           0           0           1           1           1           2           1           0           0           0
 AtZEff=   0.0000000   0.0000000   0.0000000   0.0000000   0.0000000   0.0000000   0.0000000   0.0000000   0.0000000   0.0000000
 NQMom=    0.0000000   0.0000000   0.0000000   0.0000000   0.0000000   2.0440000   0.0000000   0.0000000   0.0000000   0.0000000
 NMagM=    0.0000000   0.0000000   2.7928460   2.7928460   2.7928460   0.4037610   2.7928460   0.0000000   0.0000000   0.0000000

  Atom        11          12          13          14          15          16          17          18
 IAtWgt=          12           1          12           1          12           1           1           1
 AtmWgt=  12.0000000   1.0078250  12.0000000   1.0078250  12.0000000   1.0078250   1.0078250   1.0078250
 NucSpn=           0           1           0           1           0           1           1           1
 AtZEff=   0.0000000   0.0000000   0.0000000   0.0000000   0.0000000   0.0000000   0.0000000   0.0000000
 NQMom=    0.0000000   0.0000000   0.0000000   0.0000000   0.0000000   0.0000000   0.0000000   0.0000000
 NMagM=    0.0000000   2.7928460   0.0000000   2.7928460   0.0000000   2.7928460   2.7928460   2.7928460
 Leave Link  101 at Tue Dec 31 12:40:32 2013, MaxMem= 1610612736 cpu:       1.0
 (Enter /home/ik1r11/g09/l103.exe)

 GradGradGradGradGradGradGradGradGradGradGradGradGradGradGradGradGradGrad
 Berny optimization.
 Initialization pass.
                           ----------------------------
                           !    Initial Parameters    !
                           ! (Angstroms and Degrees)  !
 --------------------------                            --------------------------
 ! Name  Definition              Value          Derivative Info.                !
 --------------------------------------------------------------------------------
 ! R1    R(1,2)                  1.4755         estimate D2E/DX2                !
 ! R2    R(1,3)                  1.095          estimate D2E/DX2                !
 ! R3    R(1,4)                  1.0972         estimate D2E/DX2                !
 ! R4    R(1,6)                  1.4635         estimate D2E/DX2                !
 ! R5    R(2,5)                  1.0977         estimate D2E/DX2                !
 ! R6    R(2,6)                  1.4621         estimate D2E/DX2                !
 ! R7    R(2,8)                  1.54           estimate D2E/DX2                !
 ! R8    R(6,7)                  1.0243         estimate D2E/DX2                !
 ! R9    R(8,9)                  1.3952         estimate D2E/DX2                !
 ! R10   R(8,10)                 1.3948         estimate D2E/DX2                !
 ! R11   R(9,11)                 1.3947         estimate D2E/DX2                !
 ! R12   R(9,12)                 1.0997         estimate D2E/DX2                !
 ! R13   R(10,13)                1.3951         estimate D2E/DX2                !
 ! R14   R(10,14)                1.0996         estimate D2E/DX2                !
 ! R15   R(11,15)                1.3954         estimate D2E/DX2                !
 ! R16   R(11,16)                1.0997         estimate D2E/DX2                !
 ! R17   R(13,15)                1.3948         estimate D2E/DX2                !
 ! R18   R(13,17)                1.0998         estimate D2E/DX2                !
 ! R19   R(15,18)                1.0997         estimate D2E/DX2                !
 ! A1    A(2,1,3)              120.7126         estimate D2E/DX2                !
 ! A2    A(2,1,4)              117.104          estimate D2E/DX2                !
 ! A3    A(3,1,4)              114.4904         estimate D2E/DX2                !
 ! A4    A(3,1,6)              115.1276         estimate D2E/DX2                !
 ! A5    A(4,1,6)              118.9244         estimate D2E/DX2                !
 ! A6    A(1,2,5)              117.6561         estimate D2E/DX2                !
 ! A7    A(1,2,8)              119.9897         estimate D2E/DX2                !
 ! A8    A(5,2,6)              112.8798         estimate D2E/DX2                !
 ! A9    A(5,2,8)              115.2225         estimate D2E/DX2                !
 ! A10   A(6,2,8)              119.8792         estimate D2E/DX2                !
 ! A11   A(1,6,7)              108.7868         estimate D2E/DX2                !
 ! A12   A(2,6,7)              108.4076         estimate D2E/DX2                !
 ! A13   A(2,8,9)              119.9972         estimate D2E/DX2                !
 ! A14   A(2,8,10)             120.0043         estimate D2E/DX2                !
 ! A15   A(9,8,10)             119.9985         estimate D2E/DX2                !
 ! A16   A(8,9,11)             120.0086         estimate D2E/DX2                !
 ! A17   A(8,9,12)             119.9808         estimate D2E/DX2                !
 ! A18   A(11,9,12)            120.0106         estimate D2E/DX2                !
 ! A19   A(8,10,13)            120.0            estimate D2E/DX2                !
 ! A20   A(8,10,14)            120.008          estimate D2E/DX2                !
 ! A21   A(13,10,14)           119.992          estimate D2E/DX2                !
 ! A22   A(9,11,15)            119.9942         estimate D2E/DX2                !
 ! A23   A(9,11,16)            120.0128         estimate D2E/DX2                !
 ! A24   A(15,11,16)           119.993          estimate D2E/DX2                !
 ! A25   A(10,13,15)           120.0047         estimate D2E/DX2                !
 ! A26   A(10,13,17)           119.984          estimate D2E/DX2                !
 ! A27   A(15,13,17)           120.0113         estimate D2E/DX2                !
 ! A28   A(11,15,13)           119.994          estimate D2E/DX2                !
 ! A29   A(11,15,18)           119.9811         estimate D2E/DX2                !
 ! A30   A(13,15,18)           120.0249         estimate D2E/DX2                !
 ! D1    D(3,1,2,5)             -1.2934         estimate D2E/DX2                !
 ! D2    D(3,1,2,8)            147.7877         estimate D2E/DX2                !
 ! D3    D(4,1,2,5)           -149.0403         estimate D2E/DX2                !
 ! D4    D(4,1,2,8)              0.0408         estimate D2E/DX2                !
 ! D5    D(3,1,6,7)           -146.7038         estimate D2E/DX2                !
 ! D6    D(4,1,6,7)             -5.2318         estimate D2E/DX2                !
 ! D7    D(5,2,6,7)            148.6453         estimate D2E/DX2                !
 ! D8    D(8,2,6,7)              7.7597         estimate D2E/DX2                !
 ! D9    D(1,2,8,9)            126.0276         estimate D2E/DX2                !
 ! D10   D(1,2,8,10)           -53.9777         estimate D2E/DX2                !
 ! D11   D(5,2,8,9)            -84.1767         estimate D2E/DX2                !
 ! D12   D(5,2,8,10)            95.818          estimate D2E/DX2                !
 ! D13   D(6,2,8,9)             55.8455         estimate D2E/DX2                !
 ! D14   D(6,2,8,10)          -124.1598         estimate D2E/DX2                !
 ! D15   D(2,8,9,11)          -179.9729         estimate D2E/DX2                !
 ! D16   D(2,8,9,12)            -0.052          estimate D2E/DX2                !
 ! D17   D(10,8,9,11)            0.0323         estimate D2E/DX2                !
 ! D18   D(10,8,9,12)          179.9532         estimate D2E/DX2                !
 ! D19   D(2,8,10,13)         -179.9798         estimate D2E/DX2                !
 ! D20   D(2,8,10,14)           -0.0055         estimate D2E/DX2                !
 ! D21   D(9,8,10,13)            0.0149         estimate D2E/DX2                !
 ! D22   D(9,8,10,14)          179.9892         estimate D2E/DX2                !
 ! D23   D(8,9,11,15)           -0.0568         estimate D2E/DX2                !
 ! D24   D(8,9,11,16)          179.9619         estimate D2E/DX2                !
 ! D25   D(12,9,11,15)        -179.9777         estimate D2E/DX2                !
 ! D26   D(12,9,11,16)           0.041          estimate D2E/DX2                !
 ! D27   D(8,10,13,15)          -0.0376         estimate D2E/DX2                !
 ! D28   D(8,10,13,17)         179.975          estimate D2E/DX2                !
 ! D29   D(14,10,13,15)        179.9881         estimate D2E/DX2                !
 ! D30   D(14,10,13,17)          0.0007         estimate D2E/DX2                !
 ! D31   D(9,11,15,13)           0.0341         estimate D2E/DX2                !
 ! D32   D(9,11,15,18)        -179.9964         estimate D2E/DX2                !
 ! D33   D(16,11,15,13)       -179.9846         estimate D2E/DX2                !
 ! D34   D(16,11,15,18)         -0.0151         estimate D2E/DX2                !
 ! D35   D(10,13,15,11)          0.0131         estimate D2E/DX2                !
 ! D36   D(10,13,15,18)       -179.9563         estimate D2E/DX2                !
 ! D37   D(17,13,15,11)       -179.9995         estimate D2E/DX2                !
 ! D38   D(17,13,15,18)          0.0311         estimate D2E/DX2                !
 --------------------------------------------------------------------------------
 Trust Radius=3.00D-01 FncErr=1.00D-07 GrdErr=1.00D-06
 Number of steps in this run=  97 maximum allowed number of steps= 108.
 GradGradGradGradGradGradGradGradGradGradGradGradGradGradGradGradGradGrad

 Leave Link  103 at Tue Dec 31 12:40:33 2013, MaxMem= 1610612736 cpu:       0.1
 (Enter /home/ik1r11/g09/l202.exe)
                          Input orientation:                          
 ---------------------------------------------------------------------
 Center     Atomic      Atomic             Coordinates (Angstroms)
 Number     Number       Type             X           Y           Z
 ---------------------------------------------------------------------
      1          6           0       -1.011972   -0.641799   -0.148316
      2          6           0        0.155406   -0.027422    0.512572
      3          1           0       -1.813895   -1.096740    0.442500
      4          1           0       -0.843113   -1.112767   -1.124748
      5          1           0        0.176934   -0.025272    1.610051
      6          7           0       -0.906926    0.813689   -0.036828
      7          1           0       -0.589024    1.191192   -0.934392
      8          6           0        1.534972   -0.065010   -0.170790
      9          6           0        2.245486    1.118453   -0.373415
     10          6           0        2.074230   -1.282164   -0.587065
     11          6           0        3.494669    1.084750   -0.992791
     12          1           0        1.819730    2.077957   -0.045810
     13          6           0        3.324219   -1.316160   -1.205758
     14          1           0        1.514448   -2.215033   -0.427283
     15          6           0        4.034410   -0.132968   -1.408795
     16          1           0        4.054485    2.017597   -1.153102
     17          1           0        3.749332   -2.276025   -1.533497
     18          1           0        5.019389   -0.159300   -1.897076
 ---------------------------------------------------------------------
                    Distance matrix (angstroms):
                    1          2          3          4          5
     1  C    0.000000
     2  C    1.475467   0.000000
     3  H    1.095041   2.241985   0.000000
     4  H    1.097152   2.203595   1.843621   0.000000
     5  H    2.210308   1.097693   2.544527   3.114846   0.000000
     6  N    1.463526   1.462141   2.168429   2.213340   2.142620
     7  H    2.038788   2.032954   2.937818   2.325731   2.922443
     8  C    2.611535   1.540000   3.557457   2.768234   2.239921
     9  C    3.709473   2.542919   4.695888   3.883592   3.085637
    10  C    3.182328   2.542728   4.026400   2.971311   3.163358
    11  C    4.899380   3.828019   5.916064   4.864447   4.360540
    12  H    3.927610   2.741238   4.849781   4.293665   3.140737
    13  C    4.513923   3.828169   5.400473   4.173079   4.415946
    14  H    2.989262   2.741526   3.617315   2.694354   3.276390
    15  C    5.226250   4.330065   6.209574   4.983063   4.899505
    16  H    5.809558   4.707376   6.832490   5.812611   5.181094
    17  H    5.221057   4.707326   6.020362   4.755081   5.264011
    18  H    6.298277   5.429745   7.283281   5.989535   5.980575
                    6          7          8          9         10
     6  N    0.000000
     7  H    1.024301   0.000000
     8  C    2.598639   2.583117   0.000000
     9  C    3.184945   2.890404   1.395160   0.000000
    10  C    3.685465   3.651171   1.394829   2.416183   0.000000
    11  C    4.512359   4.085498   2.416205   1.394712   2.790080
    12  H    3.005513   2.716253   2.165414   1.099655   3.412938
    13  C    4.879062   4.655527   2.416183   2.789946   1.395138
    14  H    3.897264   4.035359   2.165365   3.413128   1.099604
    15  C    5.214907   4.832660   2.790065   2.416260   2.416236
    16  H    5.225999   4.721542   3.413229   2.165375   3.889760
    17  H    5.785074   5.585862   3.413055   3.889707   2.165516
    18  H    6.287165   5.848495   3.889745   3.413024   3.413344
                   11         12         13         14         15
    11  C    0.000000
    12  H    2.165330   0.000000
    13  C    2.416356   3.889601   0.000000
    14  H    3.889684   4.320704   2.165471   0.000000
    15  C    1.395427   3.413316   1.394825   3.412999   0.000000
    16  H    1.099680   2.494768   3.413209   4.989364   2.165806
    17  H    3.413506   4.989362   1.099761   2.494420   2.165528
    18  H    2.165678   4.320917   2.165606   4.320988   1.099680
                   16         17         18
    16  H    0.000000
    17  H    4.321228   0.000000
    18  H    2.494678   2.495147   0.000000
 Stoichiometry    C8H9N
 Framework group  C1[X(C8H9N)]
 Deg. of freedom    48
 Full point group                 C1      NOp   1
 Largest Abelian subgroup         C1      NOp   1
 Largest concise Abelian subgroup C1      NOp   1
                         Standard orientation:                         
 ---------------------------------------------------------------------
 Center     Atomic      Atomic             Coordinates (Angstroms)
 Number     Number       Type             X           Y           Z
 ---------------------------------------------------------------------
      1          6           0        2.582702    0.687387   -0.314163
      2          6           0        1.657735   -0.048214    0.569201
      3          1           0        3.505182    1.124784    0.081851
      4          1           0        2.140064    1.240683   -1.151825
      5          1           0        1.939485   -0.157173    1.624509
      6          7           0        2.547491   -0.775571   -0.334759
      7          1           0        2.003770   -1.081046   -1.147313
      8          6           0        0.142794   -0.017466    0.294235
      9          6           0       -0.567358   -1.211576    0.166726
     10          6           0       -0.519409    1.204123    0.172771
     11          6           0       -1.939279   -1.184007   -0.082861
     12          1           0       -0.044860   -2.174490    0.261775
     13          6           0       -1.891924    1.231875   -0.075913
     14          1           0        0.040115    2.145363    0.273416
     15          6           0       -2.601885    0.038092   -0.203874
     16          1           0       -2.498983   -2.125177   -0.184000
     17          1           0       -2.413850    2.195193   -0.171225
     18          1           0       -3.683611    0.059579   -0.400607
 ---------------------------------------------------------------------
 Rotational constants (GHZ):      4.1532073      1.1331325      0.9389139
 Leave Link  202 at Tue Dec 31 12:40:33 2013, MaxMem= 1610612736 cpu:       0.2
 (Enter /home/ik1r11/g09/l301.exe)
 Standard basis: CC-pVDZ (5D, 7F)
 Ernie: Thresh=  0.10000D-02 Tol=  0.10000D-05 Strict=F.
 Ernie:  18 primitive shells out of 243 were deleted.
 There are   171 symmetry adapted basis functions of A   symmetry.
 Integral buffers will be    131072 words long.
 Raffenetti 2 integral format.
 Two-electron integral symmetry is turned on.
   171 basis functions,   360 primitive gaussians,   180 cartesian basis functions
    32 alpha electrons       32 beta electrons
       nuclear repulsion energy       404.5018596903 Hartrees.
 IExCor= 4235 DFT=T Ex+Corr=M06 ExCW=0 ScaHFX=  0.270000
 ScaDFX=  1.000000  1.000000  1.000000  1.000000 ScalE2=  1.000000  1.000000
 IRadAn=      5 IRanWt=     -1 IRanGd=            0 ICorTp=0
 NAtoms=   18 NActive=   18 NUniq=   18 SFac= 7.50D-01 NAtFMM=   80 NAOKFM=F Big=F
 Leave Link  301 at Tue Dec 31 12:40:33 2013, MaxMem= 1610612736 cpu:       0.7
 (Enter /home/ik1r11/g09/l302.exe)
 NPDir=0 NMtPBC=     1 NCelOv=     1 NCel=       1 NClECP=     1 NCelD=      1
         NCelK=      1 NCelE2=     1 NClLst=     1 CellRange=     0.0.
 One-electron integrals computed using PRISM.
 NBasis=   171 RedAO= T  NBF=   171
 NBsUse=   171 1.00D-06 NBFU=   171
 Precomputing XC quadrature grid using
 IXCGrd= 2 IRadAn=           5 IRanWt=          -1 IRanGd=           0 AccXCQ= 1.00D-10.
 NRdTot=    1492 NPtTot=      400496 NUsed=      411187 NTot=      411219
 NSgBfM=   180   180   180   180   180 NAtAll=    18    18.
 Leave Link  302 at Tue Dec 31 12:40:33 2013, MaxMem= 1610612736 cpu:       3.8
 (Enter /home/ik1r11/g09/l303.exe)
 DipDrv:  MaxL=1.
 Leave Link  303 at Tue Dec 31 12:40:34 2013, MaxMem= 1610612736 cpu:       1.0
 (Enter /home/ik1r11/g09/l401.exe)
 Harris functional with IExCor= 1009 diagonalized for initial guess.
 ExpMin= 1.22D-01 ExpMax= 9.05D+03 ExpMxC= 3.09D+02 IAcc=3 IRadAn=         5 AccDes= 0.00D+00
 HarFok:  IExCor= 1009 AccDes= 0.00D+00 IRadAn=         5 IDoV= 1
 ScaDFX=  1.000000  1.000000  1.000000  1.000000
 FoFCou: FMM=F IPFlag=           0 FMFlag=      100000 FMFlg1=           0
         NFxFlg=           0 DoJE=T BraDBF=F KetDBF=T FulRan=T
         Omega=  0.000000  0.000000  1.000000  0.000000  0.000000 ICntrl=     500 IOpCl=  0
         NMat0=    1 NMatS0=    1 NMatT0=    0 NMatD0=    1 NMtDS0=    0 NMtDT0=    0
         I1Cent=           4 NGrid=           0.
 Petite list used in FoFCou.
 Harris En= -364.709008936980    
 Initial guess orbital symmetries:
       Occupied  (A) (A) (A) (A) (A) (A) (A) (A) (A) (A) (A) (A)
                 (A) (A) (A) (A) (A) (A) (A) (A) (A) (A) (A) (A)
                 (A) (A) (A) (A) (A) (A) (A) (A)
       Virtual   (A) (A) (A) (A) (A) (A) (A) (A) (A) (A) (A) (A)
                 (A) (A) (A) (A) (A) (A) (A) (A) (A) (A) (A) (A)
                 (A) (A) (A) (A) (A) (A) (A) (A) (A) (A) (A) (A)
                 (A) (A) (A) (A) (A) (A) (A) (A) (A) (A) (A) (A)
                 (A) (A) (A) (A) (A) (A) (A) (A) (A) (A) (A) (A)
                 (A) (A) (A) (A) (A) (A) (A) (A) (A) (A) (A) (A)
                 (A) (A) (A) (A) (A) (A) (A) (A) (A) (A) (A) (A)
                 (A) (A) (A) (A) (A) (A) (A) (A) (A) (A) (A) (A)
                 (A) (A) (A) (A) (A) (A) (A) (A) (A) (A) (A) (A)
                 (A) (A) (A) (A) (A) (A) (A) (A) (A) (A) (A) (A)
                 (A) (A) (A) (A) (A) (A) (A) (A) (A) (A) (A) (A)
                 (A) (A) (A) (A) (A) (A) (A)
 The electronic state of the initial guess is 1-A.
 Leave Link  401 at Tue Dec 31 12:40:35 2013, MaxMem= 1610612736 cpu:      16.5
 (Enter /home/ik1r11/g09/l502.exe)
 Closed shell SCF:
 Requested convergence on RMS density matrix=1.00D-08 within 128 cycles.
 Requested convergence on MAX density matrix=1.00D-06.
 Requested convergence on             energy=1.00D-06.
 No special actions if energy rises.
 Using DIIS extrapolation, IDIIS=  1040.
 Integral symmetry usage will be decided dynamically.
       411012 words used for storage of precomputed grid.
 Keep R1 ints in memory in canonical form, NReq=136184875.
 IEnd=      529886 IEndB=      529886 NGot=  1610612736 MDV=  1477441848
 LenX=  1477441848 LenY=  1477409007
 Symmetry not used in FoFDir.
 MinBra= 0 MaxBra= 2 Meth= 1.
 IRaf=       0 NMat=   1 IRICut=       1 DoRegI=T DoRafI=F ISym2E= 0 JSym2E=0.
 Integral accuracy reduced to 1.0D-05 until final iterations.

 Cycle   1  Pass 0  IDiag  1:
 E= -364.526993048025    
 DIIS: error= 3.42D-02 at cycle   1 NSaved=   1.
 NSaved= 1 IEnMin= 1 EnMin= -364.526993048025     IErMin= 1 ErrMin= 3.42D-02
 ErrMax= 3.42D-02 EMaxC= 1.00D-01 BMatC= 1.46D-01 BMatP= 1.46D-01
 IDIUse=3 WtCom= 6.58D-01 WtEn= 3.42D-01
 Coeff-Com:  0.100D+01
 Coeff-En:   0.100D+01
 Coeff:      0.100D+01
 Gap=     0.258 Goal=   None    Shift=    0.000
 GapD=    0.258 DampG=1.000 DampE=0.500 DampFc=0.5000 IDamp=-1.
 Damping current iteration by 5.00D-01
 RMSDP=5.38D-03 MaxDP=8.21D-02              OVMax= 1.42D-01

 Cycle   2  Pass 0  IDiag  1:
 E= -364.611056594778     Delta-E=       -0.084063546753 Rises=F Damp=T
 DIIS: error= 4.02D-03 at cycle   2 NSaved=   2.
 NSaved= 2 IEnMin= 2 EnMin= -364.611056594778     IErMin= 2 ErrMin= 4.02D-03
 ErrMax= 4.02D-03 EMaxC= 1.00D-01 BMatC= 4.95D-03 BMatP= 1.46D-01
 IDIUse=3 WtCom= 9.60D-01 WtEn= 4.02D-02
 Coeff-Com:  0.387D-01 0.961D+00
 Coeff-En:   0.331D-01 0.967D+00
 Coeff:      0.385D-01 0.961D+00
 Gap=     0.265 Goal=   None    Shift=    0.000
 RMSDP=1.32D-03 MaxDP=1.85D-02 DE=-8.41D-02 OVMax= 8.29D-02

 Cycle   3  Pass 0  IDiag  1:
 E= -364.704680329055     Delta-E=       -0.093623734277 Rises=F Damp=F
 DIIS: error= 2.02D-03 at cycle   3 NSaved=   3.
 NSaved= 3 IEnMin= 3 EnMin= -364.704680329055     IErMin= 3 ErrMin= 2.02D-03
 ErrMax= 2.02D-03 EMaxC= 1.00D-01 BMatC= 1.71D-03 BMatP= 4.95D-03
 IDIUse=3 WtCom= 9.80D-01 WtEn= 2.02D-02
 Coeff-Com: -0.125D-01 0.347D+00 0.665D+00
 Coeff-En:   0.000D+00 0.000D+00 0.100D+01
 Coeff:     -0.122D-01 0.340D+00 0.672D+00
 Gap=     0.249 Goal=   None    Shift=    0.000
 RMSDP=3.06D-04 MaxDP=8.50D-03 DE=-9.36D-02 OVMax= 1.42D-02

 Cycle   4  Pass 0  IDiag  1:
 E= -364.705698991732     Delta-E=       -0.001018662677 Rises=F Damp=F
 DIIS: error= 1.42D-03 at cycle   4 NSaved=   4.
 NSaved= 4 IEnMin= 4 EnMin= -364.705698991732     IErMin= 4 ErrMin= 1.42D-03
 ErrMax= 1.42D-03 EMaxC= 1.00D-01 BMatC= 5.79D-04 BMatP= 1.71D-03
 IDIUse=3 WtCom= 9.86D-01 WtEn= 1.42D-02
 Coeff-Com: -0.960D-02 0.133D+00 0.400D+00 0.477D+00
 Coeff-En:   0.000D+00 0.000D+00 0.256D+00 0.744D+00
 Coeff:     -0.946D-02 0.131D+00 0.398D+00 0.481D+00
 Gap=     0.251 Goal=   None    Shift=    0.000
 RMSDP=1.61D-04 MaxDP=3.57D-03 DE=-1.02D-03 OVMax= 8.47D-03

 Cycle   5  Pass 0  IDiag  1:
 E= -364.706261091873     Delta-E=       -0.000562100141 Rises=F Damp=F
 DIIS: error= 4.17D-04 at cycle   5 NSaved=   5.
 NSaved= 5 IEnMin= 5 EnMin= -364.706261091873     IErMin= 5 ErrMin= 4.17D-04
 ErrMax= 4.17D-04 EMaxC= 1.00D-01 BMatC= 2.58D-05 BMatP= 5.79D-04
 IDIUse=3 WtCom= 9.96D-01 WtEn= 4.17D-03
 Coeff-Com: -0.282D-02 0.126D-01 0.783D-01 0.207D+00 0.705D+00
 Coeff-En:   0.000D+00 0.000D+00 0.000D+00 0.000D+00 0.100D+01
 Coeff:     -0.280D-02 0.125D-01 0.780D-01 0.206D+00 0.706D+00
 Gap=     0.251 Goal=   None    Shift=    0.000
 RMSDP=4.19D-05 MaxDP=1.08D-03 DE=-5.62D-04 OVMax= 2.69D-03

 Cycle   6  Pass 0  IDiag  1:
 E= -364.706284085993     Delta-E=       -0.000022994121 Rises=F Damp=F
 DIIS: error= 1.67D-04 at cycle   6 NSaved=   6.
 NSaved= 6 IEnMin= 6 EnMin= -364.706284085993     IErMin= 6 ErrMin= 1.67D-04
 ErrMax= 1.67D-04 EMaxC= 1.00D-01 BMatC= 5.05D-06 BMatP= 2.58D-05
 IDIUse=3 WtCom= 9.98D-01 WtEn= 1.67D-03
 Coeff-Com: -0.953D-03-0.143D-02 0.195D-01 0.886D-01 0.409D+00 0.486D+00
 Coeff-En:   0.000D+00 0.000D+00 0.000D+00 0.000D+00 0.112D+00 0.888D+00
 Coeff:     -0.952D-03-0.143D-02 0.194D-01 0.884D-01 0.408D+00 0.486D+00
 Gap=     0.251 Goal=   None    Shift=    0.000
 RMSDP=1.33D-05 MaxDP=4.32D-04 DE=-2.30D-05 OVMax= 9.13D-04

 Cycle   7  Pass 0  IDiag  1:
 E= -364.706289139905     Delta-E=       -0.000005053911 Rises=F Damp=F
 DIIS: error= 2.53D-05 at cycle   7 NSaved=   7.
 NSaved= 7 IEnMin= 7 EnMin= -364.706289139905     IErMin= 7 ErrMin= 2.53D-05
 ErrMax= 2.53D-05 EMaxC= 1.00D-01 BMatC= 1.52D-07 BMatP= 5.05D-06
 IDIUse=1 WtCom= 1.00D+00 WtEn= 0.00D+00
 Coeff-Com:  0.600D-04-0.176D-02-0.129D-02 0.959D-02 0.648D-01 0.175D+00
 Coeff-Com:  0.754D+00
 Coeff:      0.600D-04-0.176D-02-0.129D-02 0.959D-02 0.648D-01 0.175D+00
 Coeff:      0.754D+00
 Gap=     0.251 Goal=   None    Shift=    0.000
 RMSDP=2.93D-06 MaxDP=6.54D-05 DE=-5.05D-06 OVMax= 1.44D-04

 Initial convergence to 1.0D-05 achieved.  Increase integral accuracy.
 Cycle   8  Pass 1  IDiag  1:
 E= -364.706264777731     Delta-E=        0.000024362174 Rises=F Damp=F
 DIIS: error= 3.17D-05 at cycle   1 NSaved=   1.
 NSaved= 1 IEnMin= 1 EnMin= -364.706264777731     IErMin= 1 ErrMin= 3.17D-05
 ErrMax= 3.17D-05 EMaxC= 1.00D-01 BMatC= 2.05D-07 BMatP= 2.05D-07
 IDIUse=1 WtCom= 1.00D+00 WtEn= 0.00D+00
 Coeff-Com:  0.100D+01
 Coeff:      0.100D+01
 Gap=     0.251 Goal=   None    Shift=    0.000
 RMSDP=2.93D-06 MaxDP=6.54D-05 DE= 2.44D-05 OVMax= 1.29D-04

 Cycle   9  Pass 1  IDiag  1:
 E= -364.706264992761     Delta-E=       -0.000000215030 Rises=F Damp=F
 DIIS: error= 1.10D-05 at cycle   2 NSaved=   2.
 NSaved= 2 IEnMin= 2 EnMin= -364.706264992761     IErMin= 2 ErrMin= 1.10D-05
 ErrMax= 1.10D-05 EMaxC= 1.00D-01 BMatC= 3.85D-08 BMatP= 2.05D-07
 IDIUse=1 WtCom= 1.00D+00 WtEn= 0.00D+00
 Coeff-Com:  0.212D+00 0.788D+00
 Coeff:      0.212D+00 0.788D+00
 Gap=     0.251 Goal=   None    Shift=    0.000
 RMSDP=2.20D-06 MaxDP=3.99D-05 DE=-2.15D-07 OVMax= 8.82D-05

 Cycle  10  Pass 1  IDiag  1:
 E= -364.706265002655     Delta-E=       -0.000000009894 Rises=F Damp=F
 DIIS: error= 8.05D-06 at cycle   3 NSaved=   3.
 NSaved= 3 IEnMin= 3 EnMin= -364.706265002655     IErMin= 3 ErrMin= 8.05D-06
 ErrMax= 8.05D-06 EMaxC= 1.00D-01 BMatC= 3.08D-08 BMatP= 3.85D-08
 IDIUse=1 WtCom= 1.00D+00 WtEn= 0.00D+00
 Coeff-Com: -0.127D-01 0.473D+00 0.540D+00
 Coeff:     -0.127D-01 0.473D+00 0.540D+00
 Gap=     0.251 Goal=   None    Shift=    0.000
 RMSDP=1.07D-06 MaxDP=2.43D-05 DE=-9.89D-09 OVMax= 4.89D-05

 Cycle  11  Pass 1  IDiag  1:
 E= -364.706265032658     Delta-E=       -0.000000030002 Rises=F Damp=F
 DIIS: error= 1.37D-06 at cycle   4 NSaved=   4.
 NSaved= 4 IEnMin= 4 EnMin= -364.706265032658     IErMin= 4 ErrMin= 1.37D-06
 ErrMax= 1.37D-06 EMaxC= 1.00D-01 BMatC= 8.03D-10 BMatP= 3.08D-08
 IDIUse=1 WtCom= 1.00D+00 WtEn= 0.00D+00
 Coeff-Com: -0.141D-01 0.211D+00 0.264D+00 0.539D+00
 Coeff:     -0.141D-01 0.211D+00 0.264D+00 0.539D+00
 Gap=     0.251 Goal=   None    Shift=    0.000
 RMSDP=2.10D-07 MaxDP=6.47D-06 DE=-3.00D-08 OVMax= 1.38D-05

 Cycle  12  Pass 1  IDiag  1:
 E= -364.706265033381     Delta-E=       -0.000000000723 Rises=F Damp=F
 DIIS: error= 6.34D-07 at cycle   5 NSaved=   5.
 NSaved= 5 IEnMin= 5 EnMin= -364.706265033381     IErMin= 5 ErrMin= 6.34D-07
 ErrMax= 6.34D-07 EMaxC= 1.00D-01 BMatC= 1.10D-10 BMatP= 8.03D-10
 IDIUse=1 WtCom= 1.00D+00 WtEn= 0.00D+00
 Coeff-Com: -0.530D-02 0.358D-01 0.517D-01 0.285D+00 0.632D+00
 Coeff:     -0.530D-02 0.358D-01 0.517D-01 0.285D+00 0.632D+00
 Gap=     0.251 Goal=   None    Shift=    0.000
 RMSDP=8.05D-08 MaxDP=2.32D-06 DE=-7.23D-10 OVMax= 5.36D-06

 Cycle  13  Pass 1  IDiag  1:
 E= -364.706265033490     Delta-E=       -0.000000000109 Rises=F Damp=F
 DIIS: error= 1.89D-07 at cycle   6 NSaved=   6.
 NSaved= 6 IEnMin= 6 EnMin= -364.706265033490     IErMin= 6 ErrMin= 1.89D-07
 ErrMax= 1.89D-07 EMaxC= 1.00D-01 BMatC= 1.12D-11 BMatP= 1.10D-10
 IDIUse=1 WtCom= 1.00D+00 WtEn= 0.00D+00
 Coeff-Com: -0.144D-02-0.351D-03 0.305D-02 0.941D-01 0.322D+00 0.583D+00
 Coeff:     -0.144D-02-0.351D-03 0.305D-02 0.941D-01 0.322D+00 0.583D+00
 Gap=     0.251 Goal=   None    Shift=    0.000
 RMSDP=2.39D-08 MaxDP=6.12D-07 DE=-1.09D-10 OVMax= 1.29D-06

 Cycle  14  Pass 1  IDiag  1:
 E= -364.706265033499     Delta-E=       -0.000000000009 Rises=F Damp=F
 DIIS: error= 7.55D-08 at cycle   7 NSaved=   7.
 NSaved= 7 IEnMin= 7 EnMin= -364.706265033499     IErMin= 7 ErrMin= 7.55D-08
 ErrMax= 7.55D-08 EMaxC= 1.00D-01 BMatC= 1.68D-12 BMatP= 1.12D-11
 IDIUse=1 WtCom= 1.00D+00 WtEn= 0.00D+00
 Coeff-Com:  0.774D-04-0.639D-02-0.706D-02 0.223D-02 0.703D-01 0.316D+00
 Coeff-Com:  0.625D+00
 Coeff:      0.774D-04-0.639D-02-0.706D-02 0.223D-02 0.703D-01 0.316D+00
 Coeff:      0.625D+00
 Gap=     0.251 Goal=   None    Shift=    0.000
 RMSDP=7.47D-09 MaxDP=2.22D-07 DE=-9.44D-12 OVMax= 2.66D-07

 SCF Done:  E(RM06) =  -364.706265033     A.U. after   14 cycles
             Convg  =    0.7470D-08             -V/T =  2.0073
 KE= 3.620483671721D+02 PE=-1.654828975485D+03 EE= 5.235724835895D+02
 Leave Link  502 at Tue Dec 31 12:41:13 2013, MaxMem= 1610612736 cpu:     444.2
 (Enter /home/ik1r11/g09/l601.exe)
 Copying SCF densities to generalized density rwf, IOpCl= 0 IROHF=0.

 **********************************************************************

            Population analysis using the SCF density.

 **********************************************************************

 Orbital symmetries:
       Occupied  (A) (A) (A) (A) (A) (A) (A) (A) (A) (A) (A) (A)
                 (A) (A) (A) (A) (A) (A) (A) (A) (A) (A) (A) (A)
                 (A) (A) (A) (A) (A) (A) (A) (A)
       Virtual   (A) (A) (A) (A) (A) (A) (A) (A) (A) (A) (A) (A)
                 (A) (A) (A) (A) (A) (A) (A) (A) (A) (A) (A) (A)
                 (A) (A) (A) (A) (A) (A) (A) (A) (A) (A) (A) (A)
                 (A) (A) (A) (A) (A) (A) (A) (A) (A) (A) (A) (A)
                 (A) (A) (A) (A) (A) (A) (A) (A) (A) (A) (A) (A)
                 (A) (A) (A) (A) (A) (A) (A) (A) (A) (A) (A) (A)
                 (A) (A) (A) (A) (A) (A) (A) (A) (A) (A) (A) (A)
                 (A) (A) (A) (A) (A) (A) (A) (A) (A) (A) (A) (A)
                 (A) (A) (A) (A) (A) (A) (A) (A) (A) (A) (A) (A)
                 (A) (A) (A) (A) (A) (A) (A) (A) (A) (A) (A) (A)
                 (A) (A) (A) (A) (A) (A) (A) (A) (A) (A) (A) (A)
                 (A) (A) (A) (A) (A) (A) (A)
 The electronic state is 1-A.
 Alpha  occ. eigenvalues --  -14.39875 -10.28663 -10.27761 -10.27024 -10.26308
 Alpha  occ. eigenvalues --  -10.26289 -10.26175 -10.26145 -10.26133  -0.97961
 Alpha  occ. eigenvalues --   -0.87293  -0.77023  -0.76240  -0.66988  -0.64060
 Alpha  occ. eigenvalues --   -0.61583  -0.58974  -0.54171  -0.49350  -0.48376
 Alpha  occ. eigenvalues --   -0.46699  -0.45489  -0.43284  -0.39801  -0.38901
 Alpha  occ. eigenvalues --   -0.36295  -0.35801  -0.34949  -0.33639  -0.27099
 Alpha  occ. eigenvalues --   -0.26548  -0.26006
 Alpha virt. eigenvalues --   -0.00920  -0.00832   0.06478   0.07688   0.08771
 Alpha virt. eigenvalues --    0.09543   0.11320   0.11588   0.13179   0.14223
 Alpha virt. eigenvalues --    0.14666   0.15240   0.16835   0.21870   0.23822
 Alpha virt. eigenvalues --    0.26291   0.28072   0.29791   0.30763   0.31247
 Alpha virt. eigenvalues --    0.39103   0.41369   0.44176   0.44565   0.46783
 Alpha virt. eigenvalues --    0.46918   0.48426   0.49355   0.49634   0.50189
 Alpha virt. eigenvalues --    0.50970   0.52415   0.53307   0.54120   0.54970
 Alpha virt. eigenvalues --    0.57258   0.58006   0.58814   0.59677   0.61334
 Alpha virt. eigenvalues --    0.61471   0.61682   0.63394   0.64803   0.66565
 Alpha virt. eigenvalues --    0.67588   0.68289   0.70176   0.72528   0.75635
 Alpha virt. eigenvalues --    0.81528   0.82856   0.87086   0.87937   0.90669
 Alpha virt. eigenvalues --    0.91321   0.92323   0.93121   0.94613   0.97806
 Alpha virt. eigenvalues --    0.98838   1.00402   1.00952   1.03179   1.04367
 Alpha virt. eigenvalues --    1.06092   1.06989   1.14122   1.18100   1.20676
 Alpha virt. eigenvalues --    1.22834   1.23934   1.26966   1.29621   1.35323
 Alpha virt. eigenvalues --    1.43372   1.44767   1.45426   1.46344   1.46836
 Alpha virt. eigenvalues --    1.48441   1.49470   1.50693   1.52404   1.57526
 Alpha virt. eigenvalues --    1.57767   1.58982   1.60812   1.61817   1.62366
 Alpha virt. eigenvalues --    1.64312   1.65107   1.67349   1.67948   1.69152
 Alpha virt. eigenvalues --    1.71824   1.74287   1.76141   1.76738   1.79421
 Alpha virt. eigenvalues --    1.82943   1.83267   1.83576   1.84179   1.86381
 Alpha virt. eigenvalues --    1.88768   1.89797   1.92956   1.94590   1.94884
 Alpha virt. eigenvalues --    1.96785   1.97152   1.99904   2.05268   2.06887
 Alpha virt. eigenvalues --    2.13661   2.17499   2.20150   2.23262   2.29046
 Alpha virt. eigenvalues --    2.31823   2.32999   2.35942   2.36573   2.39798
 Alpha virt. eigenvalues --    2.41055   2.46618   2.52561   2.56237   2.59906
 Alpha virt. eigenvalues --    2.61210   2.65071   2.67193   2.70082   2.75172
 Alpha virt. eigenvalues --    2.76862   2.81884   2.93704   3.43233
          Condensed to atoms (all electrons):
              1          2          3          4          5          6
     1  C    4.686872   0.315534   0.378287   0.389430  -0.019156   0.287415
     2  C    0.315534   4.954193  -0.011078  -0.018741   0.372555   0.296553
     3  H    0.378287  -0.011078   0.653157  -0.048948  -0.005068  -0.020892
     4  H    0.389430  -0.018741  -0.048948   0.663937   0.004143  -0.019895
     5  H   -0.019156   0.372555  -0.005068   0.004143   0.641960  -0.020331
     6  N    0.287415   0.296553  -0.020892  -0.019895  -0.020331   6.365984
     7  H   -0.019759  -0.049548   0.004980  -0.014225   0.005831   0.356620
     8  C   -0.037050   0.376754   0.001167  -0.000551  -0.027183  -0.037574
     9  C    0.003457  -0.081519  -0.000426   0.002310  -0.004498  -0.008689
    10  C   -0.011132  -0.078268   0.000674  -0.000123   0.000525   0.002926
    11  C   -0.000302   0.006732   0.000012  -0.000105  -0.000174   0.000209
    12  H   -0.000235  -0.014017  -0.000034   0.000142   0.000436   0.002382
    13  C    0.000425   0.007253  -0.000024   0.000123  -0.000397  -0.000252
    14  H    0.002758  -0.014224  -0.000376   0.001482   0.000413  -0.000134
    15  C   -0.000011   0.000307   0.000000  -0.000029   0.000044   0.000001
    16  H    0.000005  -0.000313   0.000000  -0.000001   0.000009   0.000002
    17  H   -0.000001  -0.000293   0.000000   0.000025   0.000010   0.000003
    18  H    0.000000   0.000035   0.000000   0.000000  -0.000001   0.000000
              7          8          9         10         11         12
     1  C   -0.019759  -0.037050   0.003457  -0.011132  -0.000302  -0.000235
     2  C   -0.049548   0.376754  -0.081519  -0.078268   0.006732  -0.014017
     3  H    0.004980   0.001167  -0.000426   0.000674   0.000012  -0.000034
     4  H   -0.014225  -0.000551   0.002310  -0.000123  -0.000105   0.000142
     5  H    0.005831  -0.027183  -0.004498   0.000525  -0.000174   0.000436
     6  N    0.356620  -0.037574  -0.008689   0.002926   0.000209   0.002382
     7  H    0.601045   0.000817   0.000889   0.001422  -0.000186   0.000681
     8  C    0.000817   4.973680   0.451277   0.485448   0.005947  -0.052651
     9  C    0.000889   0.451277   4.865032  -0.026886   0.495379   0.393555
    10  C    0.001422   0.485448  -0.026886   4.845245  -0.070018   0.011088
    11  C   -0.000186   0.005947   0.495379  -0.070018   4.762123  -0.043422
    12  H    0.000681  -0.052651   0.393555   0.011088  -0.043422   0.705863
    13  C   -0.000174   0.005748  -0.067718   0.480775   0.001037  -0.000576
    14  H    0.000139  -0.048260   0.011858   0.388979  -0.000694  -0.000184
    15  C   -0.000053  -0.074171  -0.006434  -0.007339   0.496248   0.009641
    16  H    0.000041   0.009279  -0.044557   0.000240   0.389599  -0.014202
    17  H    0.000001   0.009210   0.000087  -0.042925   0.008940   0.000068
    18  H   -0.000001  -0.000047   0.009380   0.009271  -0.048442  -0.000253
             13         14         15         16         17         18
     1  C    0.000425   0.002758  -0.000011   0.000005  -0.000001   0.000000
     2  C    0.007253  -0.014224   0.000307  -0.000313  -0.000293   0.000035
     3  H   -0.000024  -0.000376   0.000000   0.000000   0.000000   0.000000
     4  H    0.000123   0.001482  -0.000029  -0.000001   0.000025   0.000000
     5  H   -0.000397   0.000413   0.000044   0.000009   0.000010  -0.000001
     6  N   -0.000252  -0.000134   0.000001   0.000002   0.000003   0.000000
     7  H   -0.000174   0.000139  -0.000053   0.000041   0.000001  -0.000001
     8  C    0.005748  -0.048260  -0.074171   0.009279   0.009210  -0.000047
     9  C   -0.067718   0.011858  -0.006434  -0.044557   0.000087   0.009380
    10  C    0.480775   0.388979  -0.007339   0.000240  -0.042925   0.009271
    11  C    0.001037  -0.000694   0.496248   0.389599   0.008940  -0.048442
    12  H   -0.000576  -0.000184   0.009641  -0.014202   0.000068  -0.000253
    13  C    4.773637  -0.045003   0.497827   0.008861   0.388521  -0.048278
    14  H   -0.045003   0.712424   0.009677   0.000069  -0.014454  -0.000259
    15  C    0.497827   0.009677   4.784961  -0.049127  -0.049666   0.393448
    16  H    0.008861   0.000069  -0.049127   0.704537  -0.000268  -0.014503
    17  H    0.388521  -0.014454  -0.049666  -0.000268   0.705911  -0.014517
    18  H   -0.048278  -0.000259   0.393448  -0.014503  -0.014517   0.706294
 Mulliken atomic charges:
              1
     1  C    0.023463
     2  C   -0.061914
     3  H    0.048569
     4  H    0.041025
     5  H    0.050882
     6  N   -0.204327
     7  H    0.111481
     8  C   -0.041839
     9  C    0.007503
    10  C    0.010098
    11  C   -0.002883
    12  H    0.001718
    13  C   -0.001789
    14  H   -0.004213
    15  C   -0.005325
    16  H    0.010328
    17  H    0.009350
    18  H    0.007873
 Sum of Mulliken atomic charges =   0.00000
 Mulliken charges with hydrogens summed into heavy atoms:
              1
     1  C    0.113057
     2  C   -0.011033
     6  N   -0.092846
     8  C   -0.041839
     9  C    0.009221
    10  C    0.005885
    11  C    0.007446
    13  C    0.007561
    15  C    0.002549
 Sum of Mulliken charges with hydrogens summed into heavy atoms =   0.00000
 Electronic spatial extent (au):  <R**2>=           1244.8743
 Charge=              0.0000 electrons
 Dipole moment (field-independent basis, Debye):
    X=             -1.2910    Y=              0.8304    Z=             -0.4837  Tot=              1.6094
 Quadrupole moment (field-independent basis, Debye-Ang):
   XX=            -54.8032   YY=            -50.1099   ZZ=            -54.1430
   XY=              3.8134   XZ=              0.7720   YZ=              0.3492
 Traceless Quadrupole moment (field-independent basis, Debye-Ang):
   XX=             -1.7845   YY=              2.9088   ZZ=             -1.1243
   XY=              3.8134   XZ=              0.7720   YZ=              0.3492
 Octapole moment (field-independent basis, Debye-Ang**2):
  XXX=            -25.4210  YYY=             -0.3204  ZZZ=             -1.8532  XYY=             -5.8176
  XXY=             13.6416  XXZ=             -2.1289  XZZ=             10.5047  YZZ=             -1.8681
  YYZ=             -1.9419  XYZ=              0.5746
 Hexadecapole moment (field-independent basis, Debye-Ang**3):
 XXXX=          -1231.6004 YYYY=           -342.8496 ZZZZ=           -100.8912 XXXY=             46.6801
 XXXZ=             20.3185 YYYX=              2.2337 YYYZ=              1.4454 ZZZX=             -3.0185
 ZZZY=              1.7717 XXYY=           -262.3244 XXZZ=           -223.9992 YYZZ=            -80.9951
 XXYZ=              1.1037 YYXZ=             -1.4900 ZZXY=             -3.5946
 N-N= 4.045018596903D+02 E-N=-1.654828976265D+03  KE= 3.620483671721D+02
 No NMR shielding tensors so no spin-rotation constants.
 Leave Link  601 at Tue Dec 31 12:41:13 2013, MaxMem= 1610612736 cpu:       3.5
 (Enter /home/ik1r11/g09/l701.exe)
 Compute integral first derivatives.
 ... and contract with generalized density number  0.
 Leave Link  701 at Tue Dec 31 12:41:14 2013, MaxMem= 1610612736 cpu:       2.8
 (Enter /home/ik1r11/g09/l702.exe)
 L702 exits ... SP integral derivatives will be done elsewhere.
 Leave Link  702 at Tue Dec 31 12:41:14 2013, MaxMem= 1610612736 cpu:       0.3
 (Enter /home/ik1r11/g09/l703.exe)
 Compute integral first derivatives, UseDBF=F ICtDFT=           0.
 Integral derivatives from FoFDir, PRISM(SPDF).
 Calling FoFJK, ICntrl=      2127 FMM=F ISym2X=0 I1Cent= 0 IOpClX= 0 NMat=1 NMatS=1 NMatT=0.
 FoFCou: FMM=F IPFlag=           0 FMFlag=      100000 FMFlg1=         800
         NFxFlg=           0 DoJE=F BraDBF=F KetDBF=F FulRan=T
         Omega=  0.000000  0.000000  1.000000  0.000000  0.000000 ICntrl=    2127 IOpCl=  0
         NMat0=    1 NMatS0=    1 NMatT0=    0 NMatD0=    1 NMtDS0=    0 NMtDT0=    0
         I1Cent=           0 NGrid=           0.
 Symmetry not used in FoFCou.
 Leave Link  703 at Tue Dec 31 12:41:19 2013, MaxMem= 1610612736 cpu:      66.4
 (Enter /home/ik1r11/g09/l716.exe)
 Dipole        =-5.07935859D-01 3.26690069D-01-1.90302638D-01
 ***** Axes restored to original set *****
 -------------------------------------------------------------------
 Center     Atomic                   Forces (Hartrees/Bohr)
 Number     Number              X              Y              Z
 -------------------------------------------------------------------
      1        6           0.000623038   -0.000304042   -0.001368361
      2        6           0.019819899   -0.000133502   -0.009179650
      3        1           0.000570650    0.000078404    0.000420246
      4        1           0.000010311    0.000659054   -0.000053488
      5        1           0.001358005    0.000358749    0.000296003
      6        7           0.000047292    0.000508194    0.000101448
      7        1           0.000412936   -0.000470965   -0.000423705
      8        6          -0.027843445   -0.001069835    0.011760067
      9        6           0.002845314    0.002442144   -0.000799177
     10        6           0.003493178   -0.002292936   -0.001568854
     11        6           0.001225674    0.001596166   -0.000375717
     12        1           0.000459477   -0.003335264   -0.000608394
     13        6           0.000923995   -0.002073696   -0.000350435
     14        1           0.001111286    0.003618998   -0.000167145
     15        6           0.002749969    0.000164973   -0.001300280
     16        1          -0.002233425   -0.003569733    0.000596688
     17        1          -0.001695320    0.003735357    0.001164670
     18        1          -0.003878833    0.000087933    0.001856084
 -------------------------------------------------------------------
 Cartesian Forces:  Max     0.027843445 RMS     0.005326762
 Leave Link  716 at Tue Dec 31 12:41:20 2013, MaxMem= 1610612736 cpu:       0.3
 (Enter /home/ik1r11/g09/l103.exe)

 GradGradGradGradGradGradGradGradGradGradGradGradGradGradGradGradGradGrad
 Berny optimization.
 Internal  Forces:  Max     0.024980442 RMS     0.002950453
 Search for a local minimum.
 Step number   1 out of a maximum of   97
 All quantities printed in internal units (Hartrees-Bohrs-Radians)
 RMS Force = .29505D-02 SwitMx=.10000D-02 MixMth= 1
 Mixed Optimization -- RFO/linear search
 Second derivative matrix not updated -- first step.
     Eigenvalues ---    0.00237   0.01388   0.02152   0.02153   0.02154
     Eigenvalues ---    0.02155   0.02155   0.02155   0.02156   0.02157
     Eigenvalues ---    0.02277   0.02723   0.03745   0.03870   0.05572
     Eigenvalues ---    0.12097   0.12414   0.16000   0.16000   0.16000
     Eigenvalues ---    0.16000   0.16000   0.16000   0.16349   0.17592
     Eigenvalues ---    0.22000   0.22000   0.23486   0.25000   0.28519
     Eigenvalues ---    0.29805   0.33422   0.33709   0.33718   0.33718
     Eigenvalues ---    0.33720   0.33726   0.33939   0.33999   0.34237
     Eigenvalues ---    0.36265   0.42121   0.42300   0.43659   0.46412
     Eigenvalues ---    0.46453   0.46466   0.464971000.000001000.00000
     Eigenvalues --- 1000.000001000.000001000.000001000.000001000.00000
     Eigenvalues --- 1000.000001000.000001000.000001000.000001000.00000
     Eigenvalues --- 1000.000001000.000001000.000001000.000001000.00000
     Eigenvalues --- 1000.000001000.000001000.000001000.000001000.00000
     Eigenvalues --- 1000.000001000.000001000.000001000.000001000.00000
     Eigenvalues --- 1000.000001000.000001000.000001000.000001000.00000
     Eigenvalues --- 1000.000001000.000001000.000001000.000001000.00000
     Eigenvalues --- 1000.000001000.00000
 RFO step:  Lambda=-2.64542507D-03 EMin= 2.36824151D-03
 Linear search not attempted -- first point.
 Iteration  1 RMS(Cart)=  0.02102794 RMS(Int)=  0.00011361
 Iteration  2 RMS(Cart)=  0.00015080 RMS(Int)=  0.00002065
 Iteration  3 RMS(Cart)=  0.00000002 RMS(Int)=  0.00002065
 Variable       Old X    -DE/DX   Delta X   Delta X   Delta X     New X
                                 (Linear)    (Quad)   (Total)
    R1        2.78823  -0.00081   0.00000  -0.00208  -0.00208   2.78615
    R2        2.06933  -0.00022   0.00000  -0.00065  -0.00065   2.06868
    R3        2.07332  -0.00023   0.00000  -0.00066  -0.00066   2.07266
    R4        2.76566   0.00018   0.00000   0.00013   0.00012   2.76578
    R5        2.07434   0.00032   0.00000   0.00094   0.00094   2.07528
    R6        2.76305  -0.00024   0.00000  -0.00048  -0.00047   2.76257
    R7        2.91018  -0.02498   0.00000  -0.08679  -0.08679   2.82339
    R8        1.93565   0.00032   0.00000   0.00073   0.00073   1.93638
    R9        2.63647   0.00035   0.00000   0.00091   0.00091   2.63739
   R10        2.63584   0.00044   0.00000   0.00112   0.00112   2.63697
   R11        2.63562  -0.00167   0.00000  -0.00358  -0.00358   2.63205
   R12        2.07805  -0.00327   0.00000  -0.00961  -0.00961   2.06844
   R13        2.63643  -0.00165   0.00000  -0.00351  -0.00351   2.63292
   R14        2.07795  -0.00366   0.00000  -0.01078  -0.01078   2.06717
   R15        2.63697  -0.00214   0.00000  -0.00476  -0.00476   2.63221
   R16        2.07809  -0.00425   0.00000  -0.01250  -0.01250   2.06559
   R17        2.63584  -0.00186   0.00000  -0.00414  -0.00414   2.63169
   R18        2.07825  -0.00427   0.00000  -0.01256  -0.01256   2.06569
   R19        2.07809  -0.00430   0.00000  -0.01266  -0.01266   2.06544
    A1        2.10683  -0.00061   0.00000  -0.00594  -0.00594   2.10089
    A2        2.04385   0.00015   0.00000   0.00209   0.00209   2.04594
    A3        1.99823   0.00043   0.00000   0.00328   0.00328   2.00152
    A4        2.00936   0.00026   0.00000   0.00318   0.00319   2.01255
    A5        2.07562  -0.00056   0.00000  -0.00500  -0.00500   2.07062
    A6        2.05349   0.00168   0.00000   0.01193   0.01193   2.06541
    A7        2.09422  -0.00128   0.00000  -0.00513  -0.00513   2.08908
    A8        1.97012   0.00105   0.00000   0.00375   0.00373   1.97385
    A9        2.01101  -0.00042   0.00000  -0.00415  -0.00416   2.00686
   A10        2.09229  -0.00090   0.00000  -0.00453  -0.00455   2.08774
   A11        1.89869  -0.00112   0.00000  -0.00636  -0.00637   1.89232
   A12        1.89207  -0.00009   0.00000  -0.00279  -0.00280   1.88927
   A13        2.09435  -0.00052   0.00000  -0.00223  -0.00227   2.09208
   A14        2.09447   0.00339   0.00000   0.01322   0.01318   2.10765
   A15        2.09437  -0.00287   0.00000  -0.01099  -0.01101   2.08336
   A16        2.09455   0.00128   0.00000   0.00579   0.00580   2.10034
   A17        2.09406  -0.00170   0.00000  -0.00938  -0.00939   2.08467
   A18        2.09458   0.00042   0.00000   0.00359   0.00359   2.09817
   A19        2.09440   0.00125   0.00000   0.00576   0.00577   2.10016
   A20        2.09453  -0.00164   0.00000  -0.00909  -0.00910   2.08544
   A21        2.09426   0.00038   0.00000   0.00333   0.00333   2.09758
   A22        2.09429   0.00040   0.00000   0.00116   0.00116   2.09545
   A23        2.09462  -0.00027   0.00000  -0.00104  -0.00104   2.09358
   A24        2.09427  -0.00012   0.00000  -0.00012  -0.00012   2.09416
   A25        2.09448   0.00034   0.00000   0.00099   0.00098   2.09546
   A26        2.09411  -0.00015   0.00000  -0.00040  -0.00040   2.09372
   A27        2.09459  -0.00019   0.00000  -0.00059  -0.00059   2.09400
   A28        2.09429  -0.00040   0.00000  -0.00271  -0.00272   2.09157
   A29        2.09407   0.00021   0.00000   0.00141   0.00141   2.09548
   A30        2.09483   0.00019   0.00000   0.00130   0.00131   2.09614
    D1       -0.02257  -0.00003   0.00000  -0.00779  -0.00778  -0.03036
    D2        2.57938  -0.00017   0.00000  -0.00365  -0.00364   2.57574
    D3       -2.60124  -0.00014   0.00000  -0.00783  -0.00784  -2.60908
    D4        0.00071  -0.00028   0.00000  -0.00369  -0.00369  -0.00298
    D5       -2.56046  -0.00044   0.00000  -0.00863  -0.00864  -2.56910
    D6       -0.09131  -0.00006   0.00000  -0.00512  -0.00511  -0.09642
    D7        2.59435  -0.00023   0.00000  -0.00628  -0.00629   2.58806
    D8        0.13543   0.00026   0.00000   0.00204   0.00205   0.13748
    D9        2.19960  -0.00027   0.00000  -0.00668  -0.00663   2.19296
   D10       -0.94209  -0.00051   0.00000  -0.02134  -0.02137  -0.96345
   D11       -1.46916   0.00023   0.00000   0.00212   0.00215  -1.46701
   D12        1.67234  -0.00001   0.00000  -0.01254  -0.01259   1.65975
   D13        0.97469   0.00025   0.00000  -0.00349  -0.00346   0.97123
   D14       -2.16700   0.00001   0.00000  -0.01815  -0.01819  -2.18519
   D15       -3.14112  -0.00013   0.00000  -0.00790  -0.00782   3.13425
   D16       -0.00091  -0.00015   0.00000  -0.00892  -0.00885  -0.00975
   D17        0.00056   0.00011   0.00000   0.00675   0.00671   0.00728
   D18        3.14078   0.00009   0.00000   0.00573   0.00568  -3.13673
   D19       -3.14124   0.00017   0.00000   0.00962   0.00965  -3.13159
   D20       -0.00010   0.00019   0.00000   0.01070   0.01072   0.01062
   D21        0.00026  -0.00007   0.00000  -0.00504  -0.00501  -0.00475
   D22        3.14140  -0.00005   0.00000  -0.00396  -0.00394   3.13746
   D23       -0.00099  -0.00007   0.00000  -0.00368  -0.00367  -0.00467
   D24        3.14093  -0.00007   0.00000  -0.00360  -0.00361   3.13732
   D25       -3.14120  -0.00005   0.00000  -0.00265  -0.00263   3.13936
   D26        0.00072  -0.00005   0.00000  -0.00257  -0.00256  -0.00185
   D27       -0.00066  -0.00002   0.00000   0.00026   0.00027  -0.00038
   D28        3.14116   0.00008   0.00000   0.00397   0.00397  -3.13806
   D29        3.14138  -0.00003   0.00000  -0.00082  -0.00080   3.14058
   D30        0.00001   0.00006   0.00000   0.00289   0.00290   0.00291
   D31        0.00060  -0.00002   0.00000  -0.00111  -0.00112  -0.00053
   D32       -3.14153  -0.00003   0.00000  -0.00109  -0.00109   3.14056
   D33       -3.14132  -0.00001   0.00000  -0.00119  -0.00119   3.14068
   D34       -0.00026  -0.00002   0.00000  -0.00116  -0.00116  -0.00142
   D35        0.00023   0.00006   0.00000   0.00282   0.00281   0.00304
   D36       -3.14083   0.00007   0.00000   0.00279   0.00278  -3.13805
   D37       -3.14158  -0.00004   0.00000  -0.00090  -0.00089   3.14071
   D38        0.00054  -0.00003   0.00000  -0.00092  -0.00092  -0.00038
         Item               Value     Threshold  Converged?
 Maximum Force            0.024980     0.000015     NO 
 RMS     Force            0.002950     0.000010     NO 
 Maximum Displacement     0.070288     0.000060     NO 
 RMS     Displacement     0.021053     0.000040     NO 
 Predicted change in Energy=-1.337349D-03
 GradGradGradGradGradGradGradGradGradGradGradGradGradGradGradGradGradGrad

 Leave Link  103 at Tue Dec 31 12:41:20 2013, MaxMem= 1610612736 cpu:       1.6
 (Enter /home/ik1r11/g09/l202.exe)
                          Input orientation:                          
 ---------------------------------------------------------------------
 Center     Atomic      Atomic             Coordinates (Angstroms)
 Number     Number       Type             X           Y           Z
 ---------------------------------------------------------------------
      1          6           0       -0.991759   -0.633609   -0.157894
      2          6           0        0.179845   -0.031661    0.504498
      3          1           0       -1.789438   -1.090678    0.436379
      4          1           0       -0.831100   -1.094344   -1.140181
      5          1           0        0.214128   -0.029414    1.602152
      6          7           0       -0.876887    0.820525   -0.037923
      7          1           0       -0.557281    1.195327   -0.936457
      8          6           0        1.513147   -0.073362   -0.168423
      9          6           0        2.225658    1.109119   -0.373092
     10          6           0        2.066508   -1.285977   -0.581415
     11          6           0        3.473338    1.080688   -0.991503
     12          1           0        1.794781    2.060486   -0.045477
     13          6           0        3.315867   -1.315710   -1.197408
     14          1           0        1.511446   -2.214397   -0.418438
     15          6           0        4.019783   -0.132093   -1.404722
     16          1           0        4.024116    2.011062   -1.152238
     17          1           0        3.742188   -2.268653   -1.521524
     18          1           0        4.998440   -0.154330   -1.890877
 ---------------------------------------------------------------------
                    Distance matrix (angstroms):
                    1          2          3          4          5
     1  C    0.000000
     2  C    1.474368   0.000000
     3  H    1.094698   2.237014   0.000000
     4  H    1.096802   2.203696   1.844984   0.000000
     5  H    2.217425   1.098191   2.549429   3.122013   0.000000
     6  N    1.463589   1.461890   2.170348   2.209930   2.145357
     7  H    2.034684   2.031061   2.937466   2.314968   2.922259
     8  C    2.566815   1.494074   3.508245   2.735363   2.196433
     9  C    3.665403   2.501379   4.649231   3.845445   3.040411
    10  C    3.155622   2.512373   3.992790   2.957207   3.127016
    11  C    4.854978   3.784500   5.869454   4.825045   4.310663
    12  H    3.877575   2.699550   4.796733   4.248127   3.095291
    13  C    4.483469   3.792085   5.365076   4.153266   4.371828
    14  H    2.972004   2.718329   3.590166   2.694987   3.246531
    15  C    5.188607   4.289561   6.168921   4.952471   4.851271
    16  H    5.756910   4.657888   6.778046   5.763404   5.125057
    17  H    5.190675   4.668960   5.984973   4.737023   5.217159
    18  H    6.254232   5.382539   7.236584   5.952370   5.925073
                    6          7          8          9         10
     6  N    0.000000
     7  H    1.024689   0.000000
     8  C    2.555059   2.546786   0.000000
     9  C    3.133912   2.840697   1.395644   0.000000
    10  C    3.660097   3.628663   1.395424   2.409401   0.000000
    11  C    4.461105   4.032625   2.419016   1.392819   2.783603
    12  H    2.945398   2.659802   2.155862   1.094571   3.399983
    13  C    4.846348   4.623276   2.419099   2.783496   1.393280
    14  H    3.880679   4.021715   2.155583   3.399693   1.093900
    15  C    5.172329   4.788614   2.795551   2.413245   2.413413
    16  H    5.165163   4.658453   3.408472   2.157550   3.876666
    17  H    5.751516   5.552198   3.408637   3.876610   2.158091
    18  H    6.237246   5.796423   3.888530   3.404158   3.404635
                   11         12         13         14         15
    11  C    0.000000
    12  H    2.161602   0.000000
    13  C    2.410377   3.878060   0.000000
    14  H    3.877500   4.300465   2.161103   0.000000
    15  C    1.392906   3.406696   1.392633   3.405950   0.000000
    16  H    1.093064   2.489437   3.401628   4.970561   2.157981
    17  H    3.401660   4.971172   1.093115   2.489167   2.157682
    18  H    2.158721   4.309795   2.158878   4.309417   1.092982
                   16         17         18
    16  H    0.000000
    17  H    4.304860   0.000000
    18  H    2.486728   2.486957   0.000000
 Stoichiometry    C8H9N
 Framework group  C1[X(C8H9N)]
 Deg. of freedom    48
 Full point group                 C1      NOp   1
 Largest Abelian subgroup         C1      NOp   1
 Largest concise Abelian subgroup C1      NOp   1
                         Standard orientation:                         
 ---------------------------------------------------------------------
 Center     Atomic      Atomic             Coordinates (Angstroms)
 Number     Number       Type             X           Y           Z
 ---------------------------------------------------------------------
      1          6           0        2.557697    0.684542   -0.322073
      2          6           0        1.631142   -0.038209    0.568368
      3          1           0        3.475748    1.127918    0.076630
      4          1           0        2.119774    1.223849   -1.170805
      5          1           0        1.901212   -0.142772    1.627685
      6          7           0        2.519763   -0.778552   -0.325706
      7          1           0        1.974836   -1.086331   -1.137071
      8          6           0        0.163282   -0.007522    0.291413
      9          6           0       -0.545796   -1.203229    0.167657
     10          6           0       -0.515150    1.205974    0.171557
     11          6           0       -1.915988   -1.186078   -0.081793
     12          1           0       -0.015673   -2.155793    0.266023
     13          6           0       -1.886323    1.224107   -0.074990
     14          1           0        0.038018    2.144332    0.272093
     15          6           0       -2.587841    0.027978   -0.203730
     16          1           0       -2.464368   -2.126353   -0.181551
     17          1           0       -2.411145    2.178165   -0.171084
     18          1           0       -3.662892    0.041467   -0.400440
 ---------------------------------------------------------------------
 Rotational constants (GHZ):      4.1729538      1.1537246      0.9539386
 Leave Link  202 at Tue Dec 31 12:41:20 2013, MaxMem= 1610612736 cpu:       0.1
 (Enter /home/ik1r11/g09/l301.exe)
 Standard basis: CC-pVDZ (5D, 7F)
 Ernie: Thresh=  0.10000D-02 Tol=  0.10000D-05 Strict=F.
 Ernie:  18 primitive shells out of 243 were deleted.
 There are   171 symmetry adapted basis functions of A   symmetry.
 Integral buffers will be    131072 words long.
 Raffenetti 2 integral format.
 Two-electron integral symmetry is turned on.
   171 basis functions,   360 primitive gaussians,   180 cartesian basis functions
    32 alpha electrons       32 beta electrons
       nuclear repulsion energy       406.6722532326 Hartrees.
 IExCor= 4235 DFT=T Ex+Corr=M06 ExCW=0 ScaHFX=  0.270000
 ScaDFX=  1.000000  1.000000  1.000000  1.000000 ScalE2=  1.000000  1.000000
 IRadAn=      5 IRanWt=     -1 IRanGd=            0 ICorTp=0
 NAtoms=   18 NActive=   18 NUniq=   18 SFac= 7.50D-01 NAtFMM=   80 NAOKFM=F Big=F
 Leave Link  301 at Tue Dec 31 12:41:20 2013, MaxMem= 1610612736 cpu:       0.6
 (Enter /home/ik1r11/g09/l302.exe)
 NPDir=0 NMtPBC=     1 NCelOv=     1 NCel=       1 NClECP=     1 NCelD=      1
         NCelK=      1 NCelE2=     1 NClLst=     1 CellRange=     0.0.
 One-electron integrals computed using PRISM.
 NBasis=   171 RedAO= T  NBF=   171
 NBsUse=   171 1.00D-06 NBFU=   171
 Precomputing XC quadrature grid using
 IXCGrd= 2 IRadAn=           5 IRanWt=          -1 IRanGd=           0 AccXCQ= 1.00D-10.
 NRdTot=    1492 NPtTot=      400496 NUsed=      411187 NTot=      411219
 NSgBfM=   180   180   180   180   180 NAtAll=    18    18.
 Leave Link  302 at Tue Dec 31 12:41:20 2013, MaxMem= 1610612736 cpu:       3.7
 (Enter /home/ik1r11/g09/l303.exe)
 DipDrv:  MaxL=1.
 Leave Link  303 at Tue Dec 31 12:41:20 2013, MaxMem= 1610612736 cpu:       0.6
 (Enter /home/ik1r11/g09/l401.exe)
 Initial guess read from the read-write file.
 B after Tr=     0.000000    0.000000    0.000000
         Rot=    1.000000    0.000000    0.000000    0.000000 Ang=   0.00 deg.
 Guess basis will be translated and rotated to current coordinates.
 Initial guess orbital symmetries:
       Occupied  (A) (A) (A) (A) (A) (A) (A) (A) (A) (A) (A) (A)
                 (A) (A) (A) (A) (A) (A) (A) (A) (A) (A) (A) (A)
                 (A) (A) (A) (A) (A) (A) (A) (A)
       Virtual   (A) (A) (A) (A) (A) (A) (A) (A) (A) (A) (A) (A)
                 (A) (A) (A) (A) (A) (A) (A) (A) (A) (A) (A) (A)
                 (A) (A) (A) (A) (A) (A) (A) (A) (A) (A) (A) (A)
                 (A) (A) (A) (A) (A) (A) (A) (A) (A) (A) (A) (A)
                 (A) (A) (A) (A) (A) (A) (A) (A) (A) (A) (A) (A)
                 (A) (A) (A) (A) (A) (A) (A) (A) (A) (A) (A) (A)
                 (A) (A) (A) (A) (A) (A) (A) (A) (A) (A) (A) (A)
                 (A) (A) (A) (A) (A) (A) (A) (A) (A) (A) (A) (A)
                 (A) (A) (A) (A) (A) (A) (A) (A) (A) (A) (A) (A)
                 (A) (A) (A) (A) (A) (A) (A) (A) (A) (A) (A) (A)
                 (A) (A) (A) (A) (A) (A) (A) (A) (A) (A) (A) (A)
                 (A) (A) (A) (A) (A) (A) (A)
 The electronic state of the initial guess is 1-A.
 Generating alternative initial guess.
 Harris functional with IExCor= 1009 diagonalized for initial guess.
 ExpMin= 1.22D-01 ExpMax= 9.05D+03 ExpMxC= 3.09D+02 IAcc=3 IRadAn=         5 AccDes= 0.00D+00
 HarFok:  IExCor= 1009 AccDes= 0.00D+00 IRadAn=         5 IDoV= 1
 ScaDFX=  1.000000  1.000000  1.000000  1.000000
 FoFCou: FMM=F IPFlag=           0 FMFlag=      100000 FMFlg1=           0
         NFxFlg=           0 DoJE=T BraDBF=F KetDBF=T FulRan=T
         Omega=  0.000000  0.000000  1.000000  0.000000  0.000000 ICntrl=     500 IOpCl=  0
         NMat0=    1 NMatS0=    1 NMatT0=    0 NMatD0=    1 NMtDS0=    0 NMtDT0=    0
         I1Cent=           4 NGrid=           0.
 Petite list used in FoFCou.
 Harris En= -364.712741298683    
 Leave Link  401 at Tue Dec 31 12:41:22 2013, MaxMem= 1610612736 cpu:      18.1
 (Enter /home/ik1r11/g09/l502.exe)
 Closed shell SCF:
 Requested convergence on RMS density matrix=1.00D-08 within 128 cycles.
 Requested convergence on MAX density matrix=1.00D-06.
 Requested convergence on             energy=1.00D-06.
 No special actions if energy rises.
 Using DIIS extrapolation, IDIIS=  1040.
 Integral symmetry usage will be decided dynamically.
       411012 words used for storage of precomputed grid.
 Keep R1 ints in memory in canonical form, NReq=136184875.
 IEnd=      529886 IEndB=      529886 NGot=  1610612736 MDV=  1477441848
 LenX=  1477441848 LenY=  1477409007
 Symmetry not used in FoFDir.
 MinBra= 0 MaxBra= 2 Meth= 1.
 IRaf=       0 NMat=   1 IRICut=       1 DoRegI=T DoRafI=F ISym2E= 0 JSym2E=0.
 Integral accuracy reduced to 1.0D-05 until final iterations.

 Cycle   1  Pass 0  IDiag  1:
 E= -364.707009845891    
 DIIS: error= 7.38D-04 at cycle   1 NSaved=   1.
 NSaved= 1 IEnMin= 1 EnMin= -364.707009845891     IErMin= 1 ErrMin= 7.38D-04
 ErrMax= 7.38D-04 EMaxC= 1.00D-01 BMatC= 4.31D-04 BMatP= 4.31D-04
 IDIUse=3 WtCom= 9.93D-01 WtEn= 7.38D-03
 Coeff-Com:  0.100D+01
 Coeff-En:   0.100D+01
 Coeff:      0.100D+01
 Gap=     0.251 Goal=   None    Shift=    0.000
 RMSDP=2.89D-04 MaxDP=5.94D-03              OVMax= 6.02D-03

 Cycle   2  Pass 0  IDiag  1:
 E= -364.707632989878     Delta-E=       -0.000623143987 Rises=F Damp=F
 DIIS: error= 3.25D-04 at cycle   2 NSaved=   2.
 NSaved= 2 IEnMin= 2 EnMin= -364.707632989878     IErMin= 2 ErrMin= 3.25D-04
 ErrMax= 3.25D-04 EMaxC= 1.00D-01 BMatC= 5.63D-05 BMatP= 4.31D-04
 IDIUse=3 WtCom= 9.97D-01 WtEn= 3.25D-03
 Coeff-Com:  0.140D+00 0.860D+00
 Coeff-En:   0.000D+00 0.100D+01
 Coeff:      0.140D+00 0.860D+00
 Gap=     0.252 Goal=   None    Shift=    0.000
 RMSDP=7.63D-05 MaxDP=3.16D-03 DE=-6.23D-04 OVMax= 3.63D-03

 Cycle   3  Pass 0  IDiag  1:
 E= -364.707625396054     Delta-E=        0.000007593824 Rises=F Damp=F
 DIIS: error= 3.44D-04 at cycle   3 NSaved=   3.
 NSaved= 3 IEnMin= 2 EnMin= -364.707632989878     IErMin= 2 ErrMin= 3.25D-04
 ErrMax= 3.44D-04 EMaxC= 1.00D-01 BMatC= 6.71D-05 BMatP= 5.63D-05
 IDIUse=3 WtCom= 3.50D-01 WtEn= 6.50D-01
 Coeff-Com: -0.275D-01 0.530D+00 0.498D+00
 Coeff-En:   0.000D+00 0.529D+00 0.471D+00
 Coeff:     -0.963D-02 0.529D+00 0.480D+00
 Gap=     0.251 Goal=   None    Shift=    0.000
 RMSDP=4.78D-05 MaxDP=1.58D-03 DE= 7.59D-06 OVMax= 2.36D-03

 Cycle   4  Pass 0  IDiag  1:
 E= -364.707687834062     Delta-E=       -0.000062438009 Rises=F Damp=F
 DIIS: error= 9.14D-05 at cycle   4 NSaved=   4.
 NSaved= 4 IEnMin= 4 EnMin= -364.707687834062     IErMin= 4 ErrMin= 9.14D-05
 ErrMax= 9.14D-05 EMaxC= 1.00D-01 BMatC= 1.28D-06 BMatP= 5.63D-05
 IDIUse=1 WtCom= 1.00D+00 WtEn= 0.00D+00
 Coeff-Com: -0.170D-01 0.198D+00 0.216D+00 0.603D+00
 Coeff:     -0.170D-01 0.198D+00 0.216D+00 0.603D+00
 Gap=     0.251 Goal=   None    Shift=    0.000
 RMSDP=9.73D-06 MaxDP=2.26D-04 DE=-6.24D-05 OVMax= 6.82D-04

 Initial convergence to 1.0D-05 achieved.  Increase integral accuracy.
 Cycle   5  Pass 1  IDiag  1:
 E= -364.707661730103     Delta-E=        0.000026103959 Rises=F Damp=F
 DIIS: error= 5.74D-05 at cycle   1 NSaved=   1.
 NSaved= 1 IEnMin= 1 EnMin= -364.707661730103     IErMin= 1 ErrMin= 5.74D-05
 ErrMax= 5.74D-05 EMaxC= 1.00D-01 BMatC= 5.89D-07 BMatP= 5.89D-07
 IDIUse=1 WtCom= 1.00D+00 WtEn= 0.00D+00
 Coeff-Com:  0.100D+01
 Coeff:      0.100D+01
 Gap=     0.251 Goal=   None    Shift=    0.000
 RMSDP=9.73D-06 MaxDP=2.26D-04 DE= 2.61D-05 OVMax= 7.51D-04

 Cycle   6  Pass 1  IDiag  1:
 E= -364.707661089332     Delta-E=        0.000000640771 Rises=F Damp=F
 DIIS: error= 1.02D-04 at cycle   2 NSaved=   2.
 NSaved= 2 IEnMin= 1 EnMin= -364.707661730103     IErMin= 1 ErrMin= 5.74D-05
 ErrMax= 1.02D-04 EMaxC= 1.00D-01 BMatC= 1.17D-06 BMatP= 5.89D-07
 IDIUse=3 WtCom= 4.97D-01 WtEn= 5.03D-01
 Coeff-Com:  0.595D+00 0.405D+00
 Coeff-En:   0.658D+00 0.342D+00
 Coeff:      0.626D+00 0.374D+00
 Gap=     0.251 Goal=   None    Shift=    0.000
 RMSDP=6.66D-06 MaxDP=1.73D-04 DE= 6.41D-07 OVMax= 5.00D-04

 Cycle   7  Pass 1  IDiag  1:
 E= -364.707662390812     Delta-E=       -0.000001301481 Rises=F Damp=F
 DIIS: error= 6.27D-06 at cycle   3 NSaved=   3.
 NSaved= 3 IEnMin= 3 EnMin= -364.707662390812     IErMin= 3 ErrMin= 6.27D-06
 ErrMax= 6.27D-06 EMaxC= 1.00D-01 BMatC= 1.10D-08 BMatP= 5.89D-07
 IDIUse=1 WtCom= 1.00D+00 WtEn= 0.00D+00
 Coeff-Com:  0.569D-01 0.815D-01 0.862D+00
 Coeff:      0.569D-01 0.815D-01 0.862D+00
 Gap=     0.251 Goal=   None    Shift=    0.000
 RMSDP=1.19D-06 MaxDP=3.37D-05 DE=-1.30D-06 OVMax= 6.62D-05

 Cycle   8  Pass 1  IDiag  1:
 E= -364.707662394299     Delta-E=       -0.000000003486 Rises=F Damp=F
 DIIS: error= 3.91D-06 at cycle   4 NSaved=   4.
 NSaved= 4 IEnMin= 4 EnMin= -364.707662394299     IErMin= 4 ErrMin= 3.91D-06
 ErrMax= 3.91D-06 EMaxC= 1.00D-01 BMatC= 8.86D-09 BMatP= 1.10D-08
 IDIUse=1 WtCom= 1.00D+00 WtEn= 0.00D+00
 Coeff-Com: -0.145D-01 0.155D-01 0.507D+00 0.492D+00
 Coeff:     -0.145D-01 0.155D-01 0.507D+00 0.492D+00
 Gap=     0.251 Goal=   None    Shift=    0.000
 RMSDP=5.40D-07 MaxDP=2.10D-05 DE=-3.49D-09 OVMax= 2.70D-05

 Cycle   9  Pass 1  IDiag  1:
 E= -364.707662402958     Delta-E=       -0.000000008660 Rises=F Damp=F
 DIIS: error= 4.45D-07 at cycle   5 NSaved=   5.
 NSaved= 5 IEnMin= 5 EnMin= -364.707662402958     IErMin= 5 ErrMin= 4.45D-07
 ErrMax= 4.45D-07 EMaxC= 1.00D-01 BMatC= 7.83D-11 BMatP= 8.86D-09
 IDIUse=1 WtCom= 1.00D+00 WtEn= 0.00D+00
 Coeff-Com: -0.692D-02-0.257D-03 0.103D+00 0.144D+00 0.760D+00
 Coeff:     -0.692D-02-0.257D-03 0.103D+00 0.144D+00 0.760D+00
 Gap=     0.251 Goal=   None    Shift=    0.000
 RMSDP=6.55D-08 MaxDP=1.61D-06 DE=-8.66D-09 OVMax= 2.62D-06

 Cycle  10  Pass 1  IDiag  1:
 E= -364.707662403032     Delta-E=       -0.000000000074 Rises=F Damp=F
 DIIS: error= 1.59D-07 at cycle   6 NSaved=   6.
 NSaved= 6 IEnMin= 6 EnMin= -364.707662403032     IErMin= 6 ErrMin= 1.59D-07
 ErrMax= 1.59D-07 EMaxC= 1.00D-01 BMatC= 1.11D-11 BMatP= 7.83D-11
 IDIUse=1 WtCom= 1.00D+00 WtEn= 0.00D+00
 Coeff-Com: -0.196D-02-0.102D-02 0.113D-01 0.316D-01 0.318D+00 0.642D+00
 Coeff:     -0.196D-02-0.102D-02 0.113D-01 0.316D-01 0.318D+00 0.642D+00
 Gap=     0.251 Goal=   None    Shift=    0.000
 RMSDP=2.30D-08 MaxDP=5.21D-07 DE=-7.36D-11 OVMax= 9.84D-07

 Cycle  11  Pass 1  IDiag  1:
 E= -364.707662403043     Delta-E=       -0.000000000011 Rises=F Damp=F
 DIIS: error= 5.92D-08 at cycle   7 NSaved=   7.
 NSaved= 7 IEnMin= 7 EnMin= -364.707662403043     IErMin= 7 ErrMin= 5.92D-08
 ErrMax= 5.92D-08 EMaxC= 1.00D-01 BMatC= 1.50D-12 BMatP= 1.11D-11
 IDIUse=1 WtCom= 1.00D+00 WtEn= 0.00D+00
 Coeff-Com: -0.392D-05-0.439D-03-0.935D-02-0.439D-02 0.420D-01 0.289D+00
 Coeff-Com:  0.683D+00
 Coeff:     -0.392D-05-0.439D-03-0.935D-02-0.439D-02 0.420D-01 0.289D+00
 Coeff:      0.683D+00
 Gap=     0.251 Goal=   None    Shift=    0.000
 RMSDP=8.22D-09 MaxDP=2.24D-07 DE=-1.15D-11 OVMax= 4.61D-07

 SCF Done:  E(RM06) =  -364.707662403     A.U. after   11 cycles
             Convg  =    0.8215D-08             -V/T =  2.0069
 KE= 3.621938099665D+02 PE=-1.659283391316D+03 EE= 5.257096657138D+02
 Leave Link  502 at Tue Dec 31 12:41:54 2013, MaxMem= 1610612736 cpu:     388.5
 (Enter /home/ik1r11/g09/l701.exe)
 Compute integral first derivatives.
 ... and contract with generalized density number  0.
 Leave Link  701 at Tue Dec 31 12:41:55 2013, MaxMem= 1610612736 cpu:       2.4
 (Enter /home/ik1r11/g09/l702.exe)
 L702 exits ... SP integral derivatives will be done elsewhere.
 Leave Link  702 at Tue Dec 31 12:41:55 2013, MaxMem= 1610612736 cpu:       0.3
 (Enter /home/ik1r11/g09/l703.exe)
 Compute integral first derivatives, UseDBF=F ICtDFT=           0.
 Integral derivatives from FoFDir, PRISM(SPDF).
 Calling FoFJK, ICntrl=      2127 FMM=F ISym2X=0 I1Cent= 0 IOpClX= 0 NMat=1 NMatS=1 NMatT=0.
 FoFCou: FMM=F IPFlag=           0 FMFlag=      100000 FMFlg1=         800
         NFxFlg=           0 DoJE=F BraDBF=F KetDBF=F FulRan=T
         Omega=  0.000000  0.000000  1.000000  0.000000  0.000000 ICntrl=    2127 IOpCl=  0
         NMat0=    1 NMatS0=    1 NMatT0=    0 NMatD0=    1 NMtDS0=    0 NMtDT0=    0
         I1Cent=           0 NGrid=           0.
 Symmetry not used in FoFCou.
 Leave Link  703 at Tue Dec 31 12:42:00 2013, MaxMem= 1610612736 cpu:      65.6
 (Enter /home/ik1r11/g09/l716.exe)
 Dipole        =-5.02672370D-01 3.28632166D-01-1.86951303D-01
 ***** Axes restored to original set *****
 -------------------------------------------------------------------
 Center     Atomic                   Forces (Hartrees/Bohr)
 Number     Number              X              Y              Z
 -------------------------------------------------------------------
      1        6          -0.001149908   -0.000468425    0.000301651
      2        6           0.002897612   -0.000181790   -0.001381369
      3        1          -0.000150776    0.000296220   -0.000005850
      4        1           0.000302929    0.000140997    0.000195543
      5        1          -0.000522704   -0.000154685    0.000383123
      6        7          -0.001672886    0.000765621    0.000177765
      7        1           0.000344837   -0.000252187   -0.000024928
      8        6          -0.004848596   -0.000702204    0.002449231
      9        6           0.003061442    0.000384519   -0.001419829
     10        6           0.003147536    0.000066665   -0.001333711
     11        6          -0.000439000    0.000415693    0.000289095
     12        1          -0.000334165    0.000060623    0.000165763
     13        6          -0.000581962   -0.000301427    0.000272953
     14        1          -0.000455834   -0.000081758    0.000113549
     15        6           0.000326639    0.000033031   -0.000090342
     16        1           0.000028103    0.000190443   -0.000013384
     17        1          -0.000028942   -0.000183851   -0.000015973
     18        1           0.000075676   -0.000027486   -0.000063288
 -------------------------------------------------------------------
 Cartesian Forces:  Max     0.004848596 RMS     0.001146838
 Leave Link  716 at Tue Dec 31 12:42:00 2013, MaxMem= 1610612736 cpu:       0.3
 (Enter /home/ik1r11/g09/l103.exe)

 GradGradGradGradGradGradGradGradGradGradGradGradGradGradGradGradGradGrad
 Berny optimization.
 Using GEDIIS/GDIIS optimizer.
 Internal  Forces:  Max     0.002168587 RMS     0.000536649
 Search for a local minimum.
 Step number   2 out of a maximum of   97
 All quantities printed in internal units (Hartrees-Bohrs-Radians)
 RMS Force = .53665D-03 SwitMx=.10000D-02 MixMth= 2
 Mixed Optimization -- En-DIIS/RFO-DIIS
 Update second derivatives using D2CorX and points    1    2
 DE= -1.40D-03 DEPred=-1.34D-03 R= 1.04D+00
 SS=  1.41D+00  RLast= 1.05D-01 DXNew= 5.0454D-01 3.1567D-01
 Trust test= 1.04D+00 RLast= 1.05D-01 DXMaxT set to 3.16D-01
 Use linear search instead of GDIIS.
     Eigenvalues ---    0.00237   0.01378   0.02152   0.02153   0.02154
     Eigenvalues ---    0.02155   0.02155   0.02155   0.02156   0.02157
     Eigenvalues ---    0.02289   0.02728   0.03754   0.03868   0.05576
     Eigenvalues ---    0.12105   0.12424   0.15787   0.16000   0.16000
     Eigenvalues ---    0.16000   0.16000   0.16016   0.16582   0.17596
     Eigenvalues ---    0.21580   0.22000   0.22016   0.24931   0.28446
     Eigenvalues ---    0.30951   0.33447   0.33707   0.33713   0.33718
     Eigenvalues ---    0.33722   0.33881   0.33991   0.34236   0.34324
     Eigenvalues ---    0.36551   0.42089   0.42323   0.43658   0.46400
     Eigenvalues ---    0.46444   0.46471   0.472591000.000001000.00000
     Eigenvalues --- 1000.000001000.000001000.000001000.000001000.00000
     Eigenvalues --- 1000.000001000.000001000.000001000.000001000.00000
     Eigenvalues --- 1000.000001000.000001000.000001000.000001000.00000
[...]
 Alpha virt. eigenvalues --    1.48754   1.50071   1.51037   1.52926   1.57983
 Alpha virt. eigenvalues --    1.58713   1.59379   1.60886   1.62142   1.63014
 Alpha virt. eigenvalues --    1.64881   1.65335   1.67668   1.68486   1.69630
 Alpha virt. eigenvalues --    1.72516   1.74428   1.76524   1.77435   1.79853
 Alpha virt. eigenvalues --    1.83375   1.83637   1.83930   1.84362   1.86640
 Alpha virt. eigenvalues --    1.89373   1.90284   1.94165   1.95330   1.95609
 Alpha virt. eigenvalues --    1.97648   1.97971   2.00673   2.05962   2.08308
 Alpha virt. eigenvalues --    2.14133   2.17923   2.20742   2.23392   2.29274
 Alpha virt. eigenvalues --    2.32831   2.33379   2.36753   2.37991   2.41057
 Alpha virt. eigenvalues --    2.41802   2.46979   2.53083   2.57088   2.60599
 Alpha virt. eigenvalues --    2.62590   2.66102   2.67806   2.71203   2.76469
 Alpha virt. eigenvalues --    2.78692   2.83361   2.93725   3.45152
          Condensed to atoms (all electrons):
              1          2          3          4          5          6
     1  C    4.686467   0.317187   0.376853   0.389167  -0.018778   0.286540
     2  C    0.317187   4.962517  -0.010457  -0.018393   0.370921   0.298796
     3  H    0.376853  -0.010457   0.653797  -0.048755  -0.004997  -0.020550
     4  H    0.389167  -0.018393  -0.048755   0.664201   0.004194  -0.020044
     5  H   -0.018778   0.370921  -0.004997   0.004194   0.643604  -0.020698
     6  N    0.286540   0.298796  -0.020550  -0.020044  -0.020698   6.368323
     7  H   -0.019140  -0.051176   0.005027  -0.014503   0.005954   0.356082
     8  C   -0.038567   0.379559   0.001099   0.000029  -0.025707  -0.039822
     9  C    0.003917  -0.086588  -0.000498   0.002497  -0.005648  -0.010256
    10  C   -0.012314  -0.083344   0.000818  -0.000609   0.000353   0.003293
    11  C   -0.000349   0.007498   0.000014  -0.000106  -0.000147   0.000249
    12  H   -0.000246  -0.015181  -0.000040   0.000154   0.000349   0.002706
    13  C    0.000433   0.008018  -0.000023   0.000098  -0.000395  -0.000259
    14  H    0.003144  -0.015384  -0.000425   0.001507   0.000301  -0.000193
    15  C   -0.000009   0.000261   0.000000  -0.000029   0.000049   0.000001
    16  H    0.000006  -0.000343   0.000000  -0.000001   0.000009   0.000001
    17  H   -0.000004  -0.000310   0.000000   0.000025   0.000011   0.000003
    18  H    0.000000   0.000038   0.000000   0.000000  -0.000001   0.000000
              7          8          9         10         11         12
     1  C   -0.019140  -0.038567   0.003917  -0.012314  -0.000349  -0.000246
     2  C   -0.051176   0.379559  -0.086588  -0.083344   0.007498  -0.015181
     3  H    0.005027   0.001099  -0.000498   0.000818   0.000014  -0.000040
     4  H   -0.014503   0.000029   0.002497  -0.000609  -0.000106   0.000154
     5  H    0.005954  -0.025707  -0.005648   0.000353  -0.000147   0.000349
     6  N    0.356082  -0.039822  -0.010256   0.003293   0.000249   0.002706
     7  H    0.602021   0.002938   0.000449   0.001600  -0.000194   0.000453
     8  C    0.002938   4.959934   0.448475   0.488851   0.005464  -0.052858
     9  C    0.000449   0.448475   4.878000  -0.028123   0.494482   0.393990
    10  C    0.001600   0.488851  -0.028123   4.853034  -0.071068   0.011643
    11  C   -0.000194   0.005464   0.494482  -0.071068   4.758545  -0.044198
    12  H    0.000453  -0.052858   0.393990   0.011643  -0.044198   0.710823
    13  C   -0.000183   0.005546  -0.069212   0.480867   0.001488  -0.000552
    14  H    0.000144  -0.047450   0.012639   0.387930  -0.000707  -0.000211
    15  C   -0.000063  -0.073815  -0.004560  -0.005893   0.494687   0.009837
    16  H    0.000046   0.009345  -0.044182   0.000241   0.390386  -0.014727
    17  H    0.000000   0.009243   0.000076  -0.042466   0.009115   0.000071
    18  H   -0.000001   0.000060   0.009439   0.009335  -0.048828  -0.000257
             13         14         15         16         17         18
     1  C    0.000433   0.003144  -0.000009   0.000006  -0.000004   0.000000
     2  C    0.008018  -0.015384   0.000261  -0.000343  -0.000310   0.000038
     3  H   -0.000023  -0.000425   0.000000   0.000000   0.000000   0.000000
     4  H    0.000098   0.001507  -0.000029  -0.000001   0.000025   0.000000
     5  H   -0.000395   0.000301   0.000049   0.000009   0.000011  -0.000001
     6  N   -0.000259  -0.000193   0.000001   0.000001   0.000003   0.000000
     7  H   -0.000183   0.000144  -0.000063   0.000046   0.000000  -0.000001
     8  C    0.005546  -0.047450  -0.073815   0.009345   0.009243   0.000060
     9  C   -0.069212   0.012639  -0.004560  -0.044182   0.000076   0.009439
    10  C    0.480867   0.387930  -0.005893   0.000241  -0.042466   0.009335
    11  C    0.001488  -0.000707   0.494687   0.390386   0.009115  -0.048828
    12  H   -0.000552  -0.000211   0.009837  -0.014727   0.000071  -0.000257
    13  C    4.767963  -0.045935   0.497502   0.009015   0.389262  -0.048483
    14  H   -0.045935   0.718813   0.009880   0.000073  -0.015023  -0.000264
    15  C    0.497502   0.009880   4.781926  -0.050261  -0.050686   0.394177
    16  H    0.009015   0.000073  -0.050261   0.708089  -0.000282  -0.014722
    17  H    0.389262  -0.015023  -0.050686  -0.000282   0.709370  -0.014758
    18  H   -0.048483  -0.000264   0.394177  -0.014722  -0.014758   0.709250
 Mulliken atomic charges:
              1
     1  C    0.025691
     2  C   -0.063619
     3  H    0.048139
     4  H    0.040567
     5  H    0.050628
     6  N   -0.204173
     7  H    0.110544
     8  C   -0.032325
     9  C    0.005104
    10  C    0.005849
    11  C    0.003668
    12  H   -0.001756
    13  C    0.004851
    14  H   -0.008838
    15  C   -0.003005
    16  H    0.007307
    17  H    0.006353
    18  H    0.005016
 Sum of Mulliken atomic charges =   0.00000
 Mulliken charges with hydrogens summed into heavy atoms:
              1
     1  C    0.114397
     2  C   -0.012992
     6  N   -0.093629
     8  C   -0.032325
     9  C    0.003348
    10  C   -0.002989
    11  C    0.010975
    13  C    0.011204
    15  C    0.002011
 Sum of Mulliken charges with hydrogens summed into heavy atoms =   0.00000
 Electronic spatial extent (au):  <R**2>=           1231.8678
 Charge=              0.0000 electrons
 Dipole moment (field-independent basis, Debye):
    X=             -1.2716    Y=              0.8590    Z=             -0.4579  Tot=              1.6014
 Quadrupole moment (field-independent basis, Debye-Ang):
   XX=            -54.6713   YY=            -50.2904   ZZ=            -54.0121
   XY=              3.8554   XZ=              0.8179   YZ=              0.2703
 Traceless Quadrupole moment (field-independent basis, Debye-Ang):
   XX=             -1.6800   YY=              2.7009   ZZ=             -1.0208
   XY=              3.8554   XZ=              0.8179   YZ=              0.2703
 Octapole moment (field-independent basis, Debye-Ang**2):
  XXX=            -25.0628  YYY=             -0.1382  ZZZ=             -1.8544  XYY=             -5.9389
  XXY=             13.6006  XXZ=             -1.8760  XZZ=             10.4100  YZZ=             -1.8882
  YYZ=             -1.8479  XYZ=              0.4439
 Hexadecapole moment (field-independent basis, Debye-Ang**3):
 XXXX=          -1213.9646 YYYY=           -341.9004 ZZZZ=            -99.9575 XXXY=             45.8790
 XXXZ=             20.6107 YYYX=              2.5969 YYYZ=              1.1754 ZZZX=             -3.1053
 ZZZY=              1.6747 XXYY=           -259.9350 XXZZ=           -221.1842 YYZZ=            -80.4544
 XXYZ=              0.7629 YYXZ=             -1.2380 ZZXY=             -3.5193
 N-N= 4.062997948500D+02 E-N=-1.658522676486D+03  KE= 3.621789138825D+02
 Calculating spin-rotation constants.
 Leave Link  601 at Tue Dec 31 14:55:44 2013, MaxMem= 1610612736 cpu:      52.8
 (Enter /home/ik1r11/g09/l9999.exe)

 Test job not archived.
 1\1\GINC-RED0417\SP\RM06\Gen\C8H9N1\IK1R11\31-Dec-2013\0\\#P Geom=AllC
 heck Guess=TCheck SCRF=Check GenChk RM06/ChkBas NMR=ReadFC IOp(3/6=22)
 \\Phenylaziridine NMR properties\\0,1\C,0,-1.000163138,-0.6386343717,-
 0.1434763371\C,0,0.1783542093,-0.0257940318,0.4986370773\H,0,-1.794163
 9838,-1.0819460705,0.4656513724\H,0,-0.8456745497,-1.1173614059,-1.117
 818668\H,0,0.2111494698,-0.0045616725,1.5967026929\N,0,-0.8850461188,0
 .8180557441,-0.0527974289\H,0,-0.5661005678,1.1709002584,-0.9607707168
 \C,0,1.5093434595,-0.0726748718,-0.173037848\C,0,2.2336524289,1.107708
 5546,-0.3696335248\C,0,2.066719112,-1.2820798729,-0.5958876584\C,0,3.4
 830673479,1.0810055916,-0.9821036321\H,0,1.8032375387,2.0581686252,-0.
 0368023523\C,0,3.3179309599,-1.3124016104,-1.2064710905\H,0,1.50681897
 76,-2.2101140346,-0.4426750045\C,0,4.0283732805,-0.1305362333,-1.40202
 5652\H,0,4.0358575821,2.0121031756,-1.1329337838\H,0,3.7402341393,-2.2
 658056871,-1.5350709834\H,0,5.0091909825,-0.1530534172,-1.8840298724\\
 Version=EM64L-G09RevA.02\State=1-A\HF=-364.7077282\RMSD=5.167e-09\Dipo
 le=0.4138777,-0.328781,-0.3428785\Quadrupole=-1.2271272,1.869217,-0.64
 20897,2.9100005,-0.1577304,-0.7151869\PG=C01 [X(C8H9N1)]\\@
 DoSRE=F DoSRN=T DoDH=F DoFC=F DoNQ=T DoQCD=F DoSCD=F
 Inertia tensor (amu-bohr**2): 
                 1             2             3 
      1   0.431547D+03  0.145209D+02  0.369071D+01
      2   0.145209D+02  0.157205D+04 -0.141844D+01
      3   0.369071D+01 -0.141844D+01  0.189985D+04
 Principal inertia moments (amu-bohr**2):
 Iaa = 0.431353D+03 Ibb= 0.157223D+04 Icc= 0.189986D+04
 Rotation matrix to Principal Axis frame: 
                 1             2             3 
      1   0.999916D+00  0.127425D-01  0.247183D-02
      2  -0.127320D-01  0.999910D+00 -0.421742D-02
      3  -0.252535D-02  0.418559D-02  0.999988D+00
                Principal axis orientation:                
 ---------------------------------------------------------------------
 Center     Atomic                     Coordinates (Angstroms)
 Number     Number                        X           Y           Z
 ---------------------------------------------------------------------
      1          6                    2.571927    0.727745   -0.303901
      2          6                    1.638205   -0.016420    0.562798
      3          1                    3.484689    1.164894    0.112949
      4          1                    2.138735    1.281727   -1.145232
      5          1                    1.907746   -0.139217    1.620882
      6          7                    2.541724   -0.735562   -0.339128
      7          1                    2.000381   -1.024700   -1.160096
      8          6                    0.173498    0.004166    0.281571
      9          6                   -0.531324   -1.198293    0.163681
     10          6                   -0.524034    1.207946    0.153149
     11          6                   -1.900668   -1.197800   -0.084851
     12          1                    0.009676   -2.144876    0.267147
     13          6                   -1.894727    1.211746   -0.092715
     14          1                    0.020547    2.152834    0.247105
     15          6                   -2.585881    0.008626   -0.213484
     16          1                   -2.437647   -2.145485   -0.178755
     17          1                   -2.426887    2.161401   -0.193996
     18          1                   -3.661233    0.010666   -0.409575
 ---------------------------------------------------------------------
 Rotational constants (MHZ):
   4183.9114144   1147.8882468    949.9326118
 nuclear spin - molecular rotation tensor [C] (MHz):
  1  C12   
   aa=     0.0000   ba=     0.0000   ca=     0.0000
   ab=     0.0000   bb=     0.0000   cb=     0.0000
   ac=     0.0000   bc=     0.0000   cc=     0.0000
  2  C12   
   aa=     0.0000   ba=     0.0000   ca=     0.0000
   ab=     0.0000   bb=     0.0000   cb=     0.0000
   ac=     0.0000   bc=     0.0000   cc=     0.0000
  3  H1    
   aa=    -0.0001   ba=     0.0000   ca=     0.0000
   ab=     0.0000   bb=    -0.0001   cb=     0.0000
   ac=     0.0000   bc=     0.0000   cc=    -0.0001
  4  H1    
   aa=    -0.0004   ba=     0.0000   ca=     0.0000
   ab=     0.0000   bb=    -0.0001   cb=     0.0000
   ac=     0.0000   bc=     0.0000   cc=     0.0000
  5  H1    
   aa=    -0.0004   ba=     0.0000   ca=     0.0000
   ab=     0.0000   bb=    -0.0001   cb=     0.0000
   ac=     0.0000   bc=     0.0000   cc=     0.0000
  6  N14   
   aa=     0.0001   ba=     0.0000   ca=     0.0000
   ab=     0.0000   bb=     0.0001   cb=     0.0000
   ac=     0.0000   bc=     0.0000   cc=     0.0000
  7  H1    
   aa=    -0.0004   ba=     0.0000   ca=     0.0000
   ab=     0.0000   bb=    -0.0001   cb=     0.0000
   ac=     0.0000   bc=     0.0000   cc=     0.0000
  8  C12   
   aa=     0.0000   ba=     0.0000   ca=     0.0000
   ab=     0.0000   bb=     0.0000   cb=     0.0000
   ac=     0.0000   bc=     0.0000   cc=     0.0000
  9  C12   
   aa=     0.0000   ba=     0.0000   ca=     0.0000
   ab=     0.0000   bb=     0.0000   cb=     0.0000
   ac=     0.0000   bc=     0.0000   cc=     0.0000
 10  C12   
   aa=     0.0000   ba=     0.0000   ca=     0.0000
   ab=     0.0000   bb=     0.0000   cb=     0.0000
   ac=     0.0000   bc=     0.0000   cc=     0.0000
 11  C12   
   aa=     0.0000   ba=     0.0000   ca=     0.0000
   ab=     0.0000   bb=     0.0000   cb=     0.0000
   ac=     0.0000   bc=     0.0000   cc=     0.0000
 12  H1    
   aa=    -0.0002   ba=     0.0000   ca=     0.0000
   ab=     0.0000   bb=     0.0001   cb=     0.0000
   ac=     0.0000   bc=     0.0000   cc=    -0.0001
 13  C12   
   aa=     0.0000   ba=     0.0000   ca=     0.0000
   ab=     0.0000   bb=     0.0000   cb=     0.0000
   ac=     0.0000   bc=     0.0000   cc=     0.0000
 14  H1    
   aa=    -0.0002   ba=     0.0000   ca=     0.0000
   ab=     0.0000   bb=     0.0001   cb=     0.0000
   ac=     0.0000   bc=     0.0000   cc=    -0.0001
 15  C12   
   aa=     0.0000   ba=     0.0000   ca=     0.0000
   ab=     0.0000   bb=     0.0000   cb=     0.0000
   ac=     0.0000   bc=     0.0000   cc=     0.0000
 16  H1    
   aa=    -0.0002   ba=     0.0000   ca=     0.0000
   ab=     0.0000   bb=     0.0001   cb=     0.0000
   ac=     0.0000   bc=     0.0000   cc=    -0.0001
 17  H1    
   aa=    -0.0002   ba=     0.0000   ca=     0.0000
   ab=     0.0000   bb=     0.0001   cb=     0.0000
   ac=     0.0000   bc=     0.0000   cc=    -0.0001
 18  H1    
   aa=     0.0005   ba=     0.0000   ca=     0.0000
   ab=     0.0000   bb=    -0.0001   cb=     0.0000
   ac=     0.0000   bc=     0.0000   cc=    -0.0001
 Nuclear quadrupole coupling constants [Chi] (MHz):
  1  C(12) 
   aa=     0.0000   ba=     0.0000   ca=     0.0000
   ab=     0.0000   bb=     0.0000   cb=     0.0000
   ac=     0.0000   bc=     0.0000   cc=     0.0000
  2  C(12) 
   aa=     0.0000   ba=     0.0000   ca=     0.0000
   ab=     0.0000   bb=     0.0000   cb=     0.0000
   ac=     0.0000   bc=     0.0000   cc=     0.0000
  3  H(1)  
   aa=     0.0000   ba=     0.0000   ca=     0.0000
   ab=     0.0000   bb=     0.0000   cb=     0.0000
   ac=     0.0000   bc=     0.0000   cc=     0.0000
  4  H(1)  
   aa=     0.0000   ba=     0.0000   ca=     0.0000
   ab=     0.0000   bb=     0.0000   cb=     0.0000
   ac=     0.0000   bc=     0.0000   cc=     0.0000
  5  H(1)  
   aa=     0.0000   ba=     0.0000   ca=     0.0000
   ab=     0.0000   bb=     0.0000   cb=     0.0000
   ac=     0.0000   bc=     0.0000   cc=     0.0000
  6  N(14) 
   aa=    -2.1084   ba=     1.2992   ca=    -1.4339
   ab=     1.2992   bb=     1.3259   cb=     2.1413
   ac=    -1.4339   bc=     2.1413   cc=     0.7825
  7  H(1)  
   aa=     0.0000   ba=     0.0000   ca=     0.0000
   ab=     0.0000   bb=     0.0000   cb=     0.0000
   ac=     0.0000   bc=     0.0000   cc=     0.0000
  8  C(12) 
   aa=     0.0000   ba=     0.0000   ca=     0.0000
   ab=     0.0000   bb=     0.0000   cb=     0.0000
   ac=     0.0000   bc=     0.0000   cc=     0.0000
  9  C(12) 
   aa=     0.0000   ba=     0.0000   ca=     0.0000
   ab=     0.0000   bb=     0.0000   cb=     0.0000
   ac=     0.0000   bc=     0.0000   cc=     0.0000
 10  C(12) 
   aa=     0.0000   ba=     0.0000   ca=     0.0000
   ab=     0.0000   bb=     0.0000   cb=     0.0000
   ac=     0.0000   bc=     0.0000   cc=     0.0000
 11  C(12) 
   aa=     0.0000   ba=     0.0000   ca=     0.0000
   ab=     0.0000   bb=     0.0000   cb=     0.0000
   ac=     0.0000   bc=     0.0000   cc=     0.0000
 12  H(1)  
   aa=     0.0000   ba=     0.0000   ca=     0.0000
   ab=     0.0000   bb=     0.0000   cb=     0.0000
   ac=     0.0000   bc=     0.0000   cc=     0.0000
 13  C(12) 
   aa=     0.0000   ba=     0.0000   ca=     0.0000
   ab=     0.0000   bb=     0.0000   cb=     0.0000
   ac=     0.0000   bc=     0.0000   cc=     0.0000
 14  H(1)  
   aa=     0.0000   ba=     0.0000   ca=     0.0000
   ab=     0.0000   bb=     0.0000   cb=     0.0000
   ac=     0.0000   bc=     0.0000   cc=     0.0000
 15  C(12) 
   aa=     0.0000   ba=     0.0000   ca=     0.0000
   ab=     0.0000   bb=     0.0000   cb=     0.0000
   ac=     0.0000   bc=     0.0000   cc=     0.0000
 16  H(1)  
   aa=     0.0000   ba=     0.0000   ca=     0.0000
   ab=     0.0000   bb=     0.0000   cb=     0.0000
   ac=     0.0000   bc=     0.0000   cc=     0.0000
 17  H(1)  
   aa=     0.0000   ba=     0.0000   ca=     0.0000
   ab=     0.0000   bb=     0.0000   cb=     0.0000
   ac=     0.0000   bc=     0.0000   cc=     0.0000
 18  H(1)  
   aa=     0.0000   ba=     0.0000   ca=     0.0000
   ab=     0.0000   bb=     0.0000   cb=     0.0000
   ac=     0.0000   bc=     0.0000   cc=     0.0000
 Dipole moment (Debye):
     -1.2813083      0.8407788     -0.4646208  Tot=      1.6014158

 Atoms with significant hyperfine tensors:  H3-1,H4-1,H5-1,N6-14,H7-1,H12-1,H14-1
 ,H16-1,H17-1,H18-1
 The first  8 will be included in Pickett input.
 Atoms in Picket input:  H3-1,H4-1,H5-1,N6-14,H7-1,H12-1,H14-1,H16-1

--------------------------------------------------------------------------------
 Phenylaziridine NMR properties                          
   99  1000  50  0.1760E-11  0.1000E+07  0.1000E+01 1.0000000000
a 22223222  1  0  0  0  1  1   1  0  1  0
     10000   0.41839114E+04    0.0000E+00   /  A  /
     20000   0.11478882E+04    0.0000E+00   /  B  /
     30000   0.94993261E+03    0.0000E+00   /  C  /
 440010000  -0.31625717E+01    0.0000E+00   /  (6 N-14) 3/2*Chi_aa             /
 440040000   0.13586857E+00    0.0000E+00   /  (6 N-14) 1/4*(Chi_bb-Chi_cc)    /
 440610000   0.12992408E+01    0.0000E+00   /  (6 N-14) Chi_ab                 /
 440410000  -0.14339386E+01    0.0000E+00   /  (6 N-14) Chi_ac                 /
 440210000   0.21413479E+01    0.0000E+00   /  (6 N-14) Chi_bc                 /
  10020000  -0.10094531E-03    0.0000E+00   /  (3 H-1) C_bb                    /
  20010000  -0.38951336E-03    0.0000E+00   /  (4 H-1) C_aa                    /
  30010000  -0.38594378E-03    0.0000E+00   /  (5 H-1) C_aa                    /
  30020000  -0.12300777E-03    0.0000E+00   /  (5 H-1) C_bb                    /
  40010000   0.10034046E-03    0.0000E+00   /  (6 N-14) C_aa                   /
  50010000  -0.40406097E-03    0.0000E+00   /  (7 H-1) C_aa                    /
  50020000  -0.12898575E-03    0.0000E+00   /  (7 H-1) C_bb                    /
  60010000  -0.23295445E-03    0.0000E+00   /  (12 H-1) C_aa                   /
  70010000  -0.22775654E-03    0.0000E+00   /  (14 H-1) C_aa                   /
  80010000  -0.22300939E-03    0.0000E+00   /  (16 H-1) C_aa                   /
--------------------------------------------------------------------------------



 HO!  SUCH BUGS AND GOBLINS IN MY LIFE!

                            -- HAMLET, ACT 5, SCENE 2
 Job cpu time:  0 days  5 hours 10 minutes 19.6 seconds.
 File lengths (MBytes):  RWF=    372 Int=      0 D2E=      0 Chk=     12 Scr=      4
 Normal termination of Gaussian 09 at Tue Dec 31 14:55:45 2013.
