 Entering Gaussian System, Link 0=g09
 Input=cis.com
 Output=cis.log
 Initial command:
 /home/ik1r11/g09/l1.exe "/home/ik1r11/oxford/Gau-22587.inp" -scrdir="/home/ik1r11/oxford/"
 Entering Link 1 = /home/ik1r11/g09/l1.exe PID=     22588.
  
 Copyright (c) 1988,1990,1992,1993,1995,1998,2003,2009,2013,
            Gaussian, Inc.  All Rights Reserved.
  
 This is part of the Gaussian(R) 09 program.  It is based on
 the Gaussian(R) 03 system (copyright 2003, Gaussian, Inc.),
 the Gaussian(R) 98 system (copyright 1998, Gaussian, Inc.),
 the Gaussian(R) 94 system (copyright 1995, Gaussian, Inc.),
 the Gaussian 92(TM) system (copyright 1992, Gaussian, Inc.),
 the Gaussian 90(TM) system (copyright 1990, Gaussian, Inc.),
 the Gaussian 88(TM) system (copyright 1988, Gaussian, Inc.),
 the Gaussian 86(TM) system (copyright 1986, Carnegie Mellon
 University), and the Gaussian 82(TM) system (copyright 1983,
 Carnegie Mellon University). Gaussian is a federally registered
 trademark of Gaussian, Inc.
  
 This software contains proprietary and confidential information,
 including trade secrets, belonging to Gaussian, Inc.
  
 This software is provided under written license and may be
 used, copied, transmitted, or stored only in accord with that
 written license.
  
 The following legend is applicable only to US Government
 contracts under FAR:
  
                    RESTRICTED RIGHTS LEGEND
  
 Use, reproduction and disclosure by the US Government is
 subject to restrictions as set forth in subparagraphs (a)
 and (c) of the Commercial Computer Software - Restricted
 Rights clause in FAR 52.227-19.
  
 Gaussian, Inc.
 340 Quinnipiac St., Bldg. 40, Wallingford CT 06492
  
  
 ---------------------------------------------------------------
 Warning -- This program may not be used in any manner that
 competes with the business of Gaussian, Inc. or will provide
 assistance to any competitor of Gaussian, Inc.  The licensee
 of this program is prohibited from giving any competitor of
 Gaussian, Inc. access to this program.  By using this program,
 the user acknowledges that Gaussian, Inc. is engaged in the
 business of creating and licensing software in the field of
 computational chemistry and represents and warrants to the
 licensee that it is not a competitor of Gaussian, Inc. and that
 it will not use this program in any manner prohibited above.
 ---------------------------------------------------------------
  

 Cite this work as:
 Gaussian 09, Revision D.01,
 M. J. Frisch, G. W. Trucks, H. B. Schlegel, G. E. Scuseria, 
 M. A. Robb, J. R. Cheeseman, G. Scalmani, V. Barone, B. Mennucci, 
 G. A. Petersson, H. Nakatsuji, M. Caricato, X. Li, H. P. Hratchian, 
 A. F. Izmaylov, J. Bloino, G. Zheng, J. L. Sonnenberg, M. Hada, 
 M. Ehara, K. Toyota, R. Fukuda, J. Hasegawa, M. Ishida, T. Nakajima, 
 Y. Honda, O. Kitao, H. Nakai, T. Vreven, J. A. Montgomery, Jr., 
 J. E. Peralta, F. Ogliaro, M. Bearpark, J. J. Heyd, E. Brothers, 
 K. N. Kudin, V. N. Staroverov, T. Keith, R. Kobayashi, J. Normand, 
 K. Raghavachari, A. Rendell, J. C. Burant, S. S. Iyengar, J. Tomasi, 
 M. Cossi, N. Rega, J. M. Millam, M. Klene, J. E. Knox, J. B. Cross, 
 V. Bakken, C. Adamo, J. Jaramillo, R. Gomperts, R. E. Stratmann, 
 O. Yazyev, A. J. Austin, R. Cammi, C. Pomelli, J. W. Ochterski, 
 R. L. Martin, K. Morokuma, V. G. Zakrzewski, G. A. Voth, 
 P. Salvador, J. J. Dannenberg, S. Dapprich, A. D. Daniels, 
 O. Farkas, J. B. Foresman, J. V. Ortiz, J. Cioslowski, 
 and D. J. Fox, Gaussian, Inc., Wallingford CT, 2013.
 
 ******************************************
 Gaussian 09:  EM64L-G09RevD.01 24-Apr-2013
                 5-Sep-2014 
 ******************************************
 %Mem=16GB
 %Chk=phenylthiaz_cis.chk
 %NProcShared=16
 Will use up to   16 processors via shared memory.
 ------------------------------------------------------------
 #p opt=tight m06/cc-pvdz integral=(grid=ultrafine) scf=tight
 ------------------------------------------------------------
 1/7=10,14=-1,18=20,19=15,26=4,38=1/1,3;
 2/9=110,12=2,17=6,18=5,40=1/2;
 3/5=16,11=2,16=1,25=1,30=1,71=1,74=-54,75=-5/1,2,3;
 4//1;
 5/5=2,32=2,38=5/2;
 6/7=2,8=2,9=2,10=2,28=1/1;
 7//1,2,3,16;
 1/7=10,14=-1,18=20,19=15,26=4/3(2);
 2/9=110/2;
 99//99;
 2/9=110/2;
 3/5=16,11=2,16=1,25=1,30=1,71=1,74=-54,75=-5/1,2,3;
 4/5=5,16=3,69=1/1;
 5/5=2,32=2,38=5/2;
 7//1,2,3,16;
 1/7=10,14=-1,18=20,19=15,26=4/3(-5);
 2/9=110/2;
 6/7=2,8=2,9=2,10=2,19=2,28=1/1;
 99/9=1/99;
 Leave Link    1 at Fri Sep  5 00:08:23 2014, MaxMem=  2147483648 cpu:         5.1
 (Enter /home/ik1r11/g09/l101.exe)
 ---------------------------------
 Cis-isomer of dimethyloxazolidine
 ---------------------------------
 Symbolic Z-matrix:
 Charge =  0 Multiplicity = 1
 C                     1.05151   0.33656   0.03172 
 C                    -0.85199   1.52169  -0.37382 
 C                    -1.06768   0.02646  -0.35191 
 H                     1.30585  -0.23511  -0.83627 
 H                    -1.2227    1.92471   0.54545 
 H                    -1.33834   2.01899  -1.18688 
 H                    -0.805    -0.42451  -1.28601 
 S                     0.59003   1.66069  -0.39945 
 N                    -0.10065  -0.31344   0.668 
 H                    -0.33443   0.0811    1.55664 
 C                     2.28151   0.42435   0.95422 
 C                     3.222    -0.61449   0.96884 
 C                     2.46032   1.54309   1.77907 
 C                     4.3413   -0.53459   1.80831 
 H                     3.08547  -1.46867   0.33905 
 C                     3.57962   1.62299   2.61853 
 H                     1.74224   2.33627   1.7679 
 C                     4.52011   0.58414   2.63315 
 H                     5.05938  -1.32777   1.81947 
 H                     3.71615   2.47717   3.24832 
 H                     5.37472   0.64515   3.2741 
 C                    -2.51633  -0.38159  -0.02557 
 O                    -2.87404  -0.57915   1.2099 
 O                    -3.38273  -0.52883  -0.98529 
 C                    -4.72791  -0.90774  -0.68226 
 H                    -5.38838  -0.49649  -1.41681 
 H                    -4.80786  -1.97473  -0.6882 
 H                    -4.99403  -0.5355    0.28496 
 
 NAtoms=     28 NQM=       28 NQMF=       0 NMMI=      0 NMMIF=      0
                NMic=       0 NMicF=      0.
                    Isotopes and Nuclear Properties:
 (Nuclear quadrupole moments (NQMom) in fm**2, nuclear magnetic moments (NMagM)
  in nuclear magnetons)

  Atom         1           2           3           4           5           6           7           8           9          10
 IAtWgt=          12          12          12           1           1           1           1          32          14           1
 AtmWgt=  12.0000000  12.0000000  12.0000000   1.0078250   1.0078250   1.0078250   1.0078250  31.9720718  14.0030740   1.0078250
 NucSpn=           0           0           0           1           1           1           1           0           2           1
 AtZEff=   0.0000000   0.0000000   0.0000000   0.0000000   0.0000000   0.0000000   0.0000000   0.0000000   0.0000000   0.0000000
 NQMom=    0.0000000   0.0000000   0.0000000   0.0000000   0.0000000   0.0000000   0.0000000   0.0000000   2.0440000   0.0000000
 NMagM=    0.0000000   0.0000000   0.0000000   2.7928460   2.7928460   2.7928460   2.7928460   0.0000000   0.4037610   2.7928460
 AtZNuc=   6.0000000   6.0000000   6.0000000   1.0000000   1.0000000   1.0000000   1.0000000  16.0000000   7.0000000   1.0000000

  Atom        11          12          13          14          15          16          17          18          19          20
 IAtWgt=          12          12          12          12           1          12           1          12           1           1
 AtmWgt=  12.0000000  12.0000000  12.0000000  12.0000000   1.0078250  12.0000000   1.0078250  12.0000000   1.0078250   1.0078250
 NucSpn=           0           0           0           0           1           0           1           0           1           1
 AtZEff=   0.0000000   0.0000000   0.0000000   0.0000000   0.0000000   0.0000000   0.0000000   0.0000000   0.0000000   0.0000000
 NQMom=    0.0000000   0.0000000   0.0000000   0.0000000   0.0000000   0.0000000   0.0000000   0.0000000   0.0000000   0.0000000
 NMagM=    0.0000000   0.0000000   0.0000000   0.0000000   2.7928460   0.0000000   2.7928460   0.0000000   2.7928460   2.7928460
 AtZNuc=   6.0000000   6.0000000   6.0000000   6.0000000   1.0000000   6.0000000   1.0000000   6.0000000   1.0000000   1.0000000

  Atom        21          22          23          24          25          26          27          28
 IAtWgt=           1          12          16          16          12           1           1           1
 AtmWgt=   1.0078250  12.0000000  15.9949146  15.9949146  12.0000000   1.0078250   1.0078250   1.0078250
 NucSpn=           1           0           0           0           0           1           1           1
 AtZEff=   0.0000000   0.0000000   0.0000000   0.0000000   0.0000000   0.0000000   0.0000000   0.0000000
 NQMom=    0.0000000   0.0000000   0.0000000   0.0000000   0.0000000   0.0000000   0.0000000   0.0000000
 NMagM=    2.7928460   0.0000000   0.0000000   0.0000000   0.0000000   2.7928460   2.7928460   2.7928460
 AtZNuc=   1.0000000   6.0000000   8.0000000   8.0000000   6.0000000   1.0000000   1.0000000   1.0000000
 Leave Link  101 at Fri Sep  5 00:08:24 2014, MaxMem=  2147483648 cpu:         5.6
 (Enter /home/ik1r11/g09/l103.exe)

 GradGradGradGradGradGradGradGradGradGradGradGradGradGradGradGradGradGrad
 Berny optimization.
 Initialization pass.
                           ----------------------------
                           !    Initial Parameters    !
                           ! (Angstroms and Degrees)  !
 --------------------------                            --------------------------
 ! Name  Definition              Value          Derivative Info.                !
 --------------------------------------------------------------------------------
 ! R1    R(1,4)                  1.07           estimate D2E/DX2                !
 ! R2    R(1,8)                  1.467          estimate D2E/DX2                !
 ! R3    R(1,9)                  1.4679         estimate D2E/DX2                !
 ! R4    R(1,11)                 1.54           estimate D2E/DX2                !
 ! R5    R(2,3)                  1.5109         estimate D2E/DX2                !
 ! R6    R(2,5)                  1.07           estimate D2E/DX2                !
 ! R7    R(2,6)                  1.07           estimate D2E/DX2                !
 ! R8    R(2,8)                  1.4489         estimate D2E/DX2                !
 ! R9    R(3,7)                  1.07           estimate D2E/DX2                !
 ! R10   R(3,9)                  1.446          estimate D2E/DX2                !
 ! R11   R(3,22)                 1.54           estimate D2E/DX2                !
 ! R12   R(9,10)                 1.0            estimate D2E/DX2                !
 ! R13   R(11,12)                1.4014         estimate D2E/DX2                !
 ! R14   R(11,13)                1.4014         estimate D2E/DX2                !
 ! R15   R(12,14)                1.4014         estimate D2E/DX2                !
 ! R16   R(12,15)                1.07           estimate D2E/DX2                !
 ! R17   R(13,16)                1.4014         estimate D2E/DX2                !
 ! R18   R(13,17)                1.07           estimate D2E/DX2                !
 ! R19   R(14,18)                1.4014         estimate D2E/DX2                !
 ! R20   R(14,19)                1.07           estimate D2E/DX2                !
 ! R21   R(16,18)                1.4014         estimate D2E/DX2                !
 ! R22   R(16,20)                1.07           estimate D2E/DX2                !
 ! R23   R(18,21)                1.07           estimate D2E/DX2                !
 ! R24   R(22,23)                1.3013         estimate D2E/DX2                !
 ! R25   R(22,24)                1.3013         estimate D2E/DX2                !
 ! R26   R(24,25)                1.43           estimate D2E/DX2                !
 ! R27   R(25,26)                1.07           estimate D2E/DX2                !
 ! R28   R(25,27)                1.07           estimate D2E/DX2                !
 ! R29   R(25,28)                1.07           estimate D2E/DX2                !
 ! A1    A(4,1,8)              108.5767         estimate D2E/DX2                !
 ! A2    A(4,1,9)              107.5545         estimate D2E/DX2                !
 ! A3    A(4,1,11)             109.0587         estimate D2E/DX2                !
 ! A4    A(8,1,9)              106.27           estimate D2E/DX2                !
 ! A5    A(8,1,11)             112.0764         estimate D2E/DX2                !
 ! A6    A(9,1,11)             113.1095         estimate D2E/DX2                !
 ! A7    A(3,2,5)              108.1096         estimate D2E/DX2                !
 ! A8    A(3,2,6)              113.9591         estimate D2E/DX2                !
 ! A9    A(3,2,8)              103.7253         estimate D2E/DX2                !
 ! A10   A(5,2,6)              108.6807         estimate D2E/DX2                !
 ! A11   A(5,2,8)              108.8969         estimate D2E/DX2                !
 ! A12   A(6,2,8)              113.2251         estimate D2E/DX2                !
 ! A13   A(2,3,7)              111.6782         estimate D2E/DX2                !
 ! A14   A(2,3,9)               98.4756         estimate D2E/DX2                !
 ! A15   A(2,3,22)             113.5523         estimate D2E/DX2                !
 ! A16   A(7,3,9)              110.6403         estimate D2E/DX2                !
 ! A17   A(7,3,22)             107.7132         estimate D2E/DX2                !
 ! A18   A(9,3,22)             114.6672         estimate D2E/DX2                !
 ! A19   A(1,8,2)              102.7844         estimate D2E/DX2                !
 ! A20   A(1,9,3)               96.6089         estimate D2E/DX2                !
 ! A21   A(1,9,10)             113.2014         estimate D2E/DX2                !
 ! A22   A(3,9,10)             112.1915         estimate D2E/DX2                !
 ! A23   A(1,11,12)            120.0            estimate D2E/DX2                !
 ! A24   A(1,11,13)            120.0            estimate D2E/DX2                !
 ! A25   A(12,11,13)           120.0            estimate D2E/DX2                !
 ! A26   A(11,12,14)           120.0            estimate D2E/DX2                !
 ! A27   A(11,12,15)           120.0            estimate D2E/DX2                !
 ! A28   A(14,12,15)           120.0            estimate D2E/DX2                !
 ! A29   A(11,13,16)           120.0            estimate D2E/DX2                !
 ! A30   A(11,13,17)           120.0            estimate D2E/DX2                !
 ! A31   A(16,13,17)           120.0            estimate D2E/DX2                !
 ! A32   A(12,14,18)           120.0            estimate D2E/DX2                !
 ! A33   A(12,14,19)           120.0            estimate D2E/DX2                !
 ! A34   A(18,14,19)           120.0            estimate D2E/DX2                !
 ! A35   A(13,16,18)           120.0            estimate D2E/DX2                !
 ! A36   A(13,16,20)           120.0            estimate D2E/DX2                !
 ! A37   A(18,16,20)           120.0            estimate D2E/DX2                !
 ! A38   A(14,18,16)           120.0            estimate D2E/DX2                !
 ! A39   A(14,18,21)           120.0            estimate D2E/DX2                !
 ! A40   A(16,18,21)           120.0            estimate D2E/DX2                !
 ! A41   A(3,22,23)            120.0            estimate D2E/DX2                !
 ! A42   A(3,22,24)            120.0            estimate D2E/DX2                !
 ! A43   A(23,22,24)           120.0            estimate D2E/DX2                !
 ! A44   A(22,24,25)           120.0            estimate D2E/DX2                !
 ! A45   A(24,25,26)           109.4712         estimate D2E/DX2                !
 ! A46   A(24,25,27)           109.4712         estimate D2E/DX2                !
 ! A47   A(24,25,28)           109.4712         estimate D2E/DX2                !
 ! A48   A(26,25,27)           109.4712         estimate D2E/DX2                !
 ! A49   A(26,25,28)           109.4712         estimate D2E/DX2                !
 ! A50   A(27,25,28)           109.4712         estimate D2E/DX2                !
 ! D1    D(4,1,8,2)             98.0325         estimate D2E/DX2                !
 ! D2    D(9,1,8,2)            -17.4067         estimate D2E/DX2                !
 ! D3    D(11,1,8,2)          -141.4336         estimate D2E/DX2                !
 ! D4    D(4,1,9,3)            -70.1025         estimate D2E/DX2                !
 ! D5    D(4,1,9,10)           172.2941         estimate D2E/DX2                !
 ! D6    D(8,1,9,3)             46.027          estimate D2E/DX2                !
 ! D7    D(8,1,9,10)           -71.5765         estimate D2E/DX2                !
 ! D8    D(11,1,9,3)           169.4093         estimate D2E/DX2                !
 ! D9    D(11,1,9,10)           51.8059         estimate D2E/DX2                !
 ! D10   D(4,1,11,12)          -29.7914         estimate D2E/DX2                !
 ! D11   D(4,1,11,13)          150.2086         estimate D2E/DX2                !
 ! D12   D(8,1,11,12)         -150.0453         estimate D2E/DX2                !
 ! D13   D(8,1,11,13)           29.9547         estimate D2E/DX2                !
 ! D14   D(9,1,11,12)           89.8368         estimate D2E/DX2                !
 ! D15   D(9,1,11,13)          -90.1632         estimate D2E/DX2                !
 ! D16   D(5,2,3,7)            174.3721         estimate D2E/DX2                !
 ! D17   D(5,2,3,9)            -69.3482         estimate D2E/DX2                !
 ! D18   D(5,2,3,22)            52.3372         estimate D2E/DX2                !
 ! D19   D(6,2,3,7)             53.4357         estimate D2E/DX2                !
 ! D20   D(6,2,3,9)            169.7153         estimate D2E/DX2                !
 ! D21   D(6,2,3,22)           -68.5992         estimate D2E/DX2                !
 ! D22   D(8,2,3,7)            -70.1199         estimate D2E/DX2                !
 ! D23   D(8,2,3,9)             46.1598         estimate D2E/DX2                !
 ! D24   D(8,2,3,22)           167.8452         estimate D2E/DX2                !
 ! D25   D(3,2,8,1)            -17.1768         estimate D2E/DX2                !
 ! D26   D(5,2,8,1)             97.7719         estimate D2E/DX2                !
 ! D27   D(6,2,8,1)           -141.2114         estimate D2E/DX2                !
 ! D28   D(2,3,9,1)            -54.2868         estimate D2E/DX2                !
 ! D29   D(2,3,9,10)            64.111          estimate D2E/DX2                !
 ! D30   D(7,3,9,1)             62.7923         estimate D2E/DX2                !
 ! D31   D(7,3,9,10)          -178.8099         estimate D2E/DX2                !
 ! D32   D(22,3,9,1)          -175.1509         estimate D2E/DX2                !
 ! D33   D(22,3,9,10)          -56.7531         estimate D2E/DX2                !
 ! D34   D(2,3,22,23)          -90.25           estimate D2E/DX2                !
 ! D35   D(2,3,22,24)           89.75           estimate D2E/DX2                !
 ! D36   D(7,3,22,23)          145.5391         estimate D2E/DX2                !
 ! D37   D(7,3,22,24)          -34.4609         estimate D2E/DX2                !
 ! D38   D(9,3,22,23)           21.9051         estimate D2E/DX2                !
 ! D39   D(9,3,22,24)         -158.0949         estimate D2E/DX2                !
 ! D40   D(1,11,12,14)        -180.0            estimate D2E/DX2                !
 ! D41   D(1,11,12,15)          -0.0002         estimate D2E/DX2                !
 ! D42   D(13,11,12,14)          0.0            estimate D2E/DX2                !
 ! D43   D(13,11,12,15)        179.9998         estimate D2E/DX2                !
 ! D44   D(1,11,13,16)        -179.9999         estimate D2E/DX2                !
 ! D45   D(1,11,13,17)           0.0            estimate D2E/DX2                !
 ! D46   D(12,11,13,16)          0.0001         estimate D2E/DX2                !
 ! D47   D(12,11,13,17)        180.0            estimate D2E/DX2                !
 ! D48   D(11,12,14,18)         -0.0002         estimate D2E/DX2                !
 ! D49   D(11,12,14,19)        179.9999         estimate D2E/DX2                !
 ! D50   D(15,12,14,18)        180.0            estimate D2E/DX2                !
 ! D51   D(15,12,14,19)          0.0001         estimate D2E/DX2                !
 ! D52   D(11,13,16,18)         -0.0001         estimate D2E/DX2                !
 ! D53   D(11,13,16,20)        179.9998         estimate D2E/DX2                !
 ! D54   D(17,13,16,18)       -179.9999         estimate D2E/DX2                !
 ! D55   D(17,13,16,20)         -0.0001         estimate D2E/DX2                !
 ! D56   D(12,14,18,16)          0.0002         estimate D2E/DX2                !
 ! D57   D(12,14,18,21)       -179.9999         estimate D2E/DX2                !
 ! D58   D(19,14,18,16)       -179.9998         estimate D2E/DX2                !
 ! D59   D(19,14,18,21)          0.0            estimate D2E/DX2                !
 ! D60   D(13,16,18,14)         -0.0001         estimate D2E/DX2                !
 ! D61   D(13,16,18,21)       -180.0            estimate D2E/DX2                !
 ! D62   D(20,16,18,14)       -180.0            estimate D2E/DX2                !
 ! D63   D(20,16,18,21)          0.0002         estimate D2E/DX2                !
 ! D64   D(3,22,24,25)         179.9999         estimate D2E/DX2                !
 ! D65   D(23,22,24,25)         -0.0001         estimate D2E/DX2                !
 ! D66   D(22,24,25,26)        150.0            estimate D2E/DX2                !
 ! D67   D(22,24,25,27)        -90.0            estimate D2E/DX2                !
 ! D68   D(22,24,25,28)         30.0            estimate D2E/DX2                !
 --------------------------------------------------------------------------------
 Trust Radius=3.00D-01 FncErr=1.00D-07 GrdErr=1.00D-06
 Number of steps in this run=    157 maximum allowed number of steps=    168.
 GradGradGradGradGradGradGradGradGradGradGradGradGradGradGradGradGradGrad

 Leave Link  103 at Fri Sep  5 00:08:24 2014, MaxMem=  2147483648 cpu:         0.7
 (Enter /home/ik1r11/g09/l202.exe)
                          Input orientation:                          
 ---------------------------------------------------------------------
 Center     Atomic      Atomic             Coordinates (Angstroms)
 Number     Number       Type             X           Y           Z
 ---------------------------------------------------------------------
      1          6           0        1.051511    0.336557    0.031725
      2          6           0       -0.851990    1.521694   -0.373822
      3          6           0       -1.067677    0.026456   -0.351913
      4          1           0        1.305852   -0.235107   -0.836268
      5          1           0       -1.222695    1.924709    0.545448
      6          1           0       -1.338342    2.018992   -1.186876
      7          1           0       -0.804999   -0.424506   -1.286009
      8         16           0        0.590034    1.660686   -0.399449
      9          7           0       -0.100647   -0.313445    0.667996
     10          1           0       -0.334426    0.081100    1.556637
     11          6           0        2.281511    0.424353    0.954217
     12          6           0        3.221997   -0.614489    0.968837
     13          6           0        2.460324    1.543090    1.779065
     14          6           0        4.341296   -0.534595    1.808305
     15          1           0        3.085468   -1.468671    0.339049
     16          6           0        3.579625    1.622986    2.618532
     17          1           0        1.742242    2.336270    1.767903
     18          6           0        4.520112    0.584144    2.633151
     19          1           0        5.059378   -1.327775    1.819469
     20          1           0        3.716155    2.477168    3.248319
     21          1           0        5.374723    0.645146    3.274102
     22          6           0       -2.516331   -0.381592   -0.025574
     23          8           0       -2.874045   -0.579154    1.209898
     24          8           0       -3.382731   -0.528831   -0.985290
     25          6           0       -4.727909   -0.907736   -0.682261
     26          1           0       -5.388376   -0.496490   -1.416810
     27          1           0       -4.807857   -1.974728   -0.688196
     28          1           0       -4.994027   -0.535504    0.284964
 ---------------------------------------------------------------------
                    Distance matrix (angstroms):
                    1          2          3          4          5
     1  C    0.000000
     2  C    2.278669   0.000000
     3  C    2.175844   1.510874   0.000000
     4  H    1.070000   2.820725   2.436525   0.000000
     5  H    2.821020   1.070000   2.105387   3.601041   0.000000
     6  H    3.166539   1.070000   2.177296   3.492227   1.738737
     7  H    2.400472   2.149881   1.070000   2.166525   3.007909
     8  S    1.467034   1.448933   2.328298   2.072978   2.061195
     9  N    1.467928   2.240008   1.445993   2.060871   2.506660
    10  H    2.076400   2.463708   2.045289   2.918303   2.282635
    11  C    1.540000   3.575845   3.616816   2.143043   3.833748
    12  C    2.548270   4.792012   4.533927   2.659689   5.136349
    13  C    2.548270   3.950544   4.391815   3.366714   3.902829
    14  C    3.838989   5.996684   5.851352   4.037002   6.212970
    15  H    2.736837   4.995402   4.467823   2.463754   5.487978
    16  C    3.838989   5.348238   5.741939   4.534115   5.239370
    17  H    2.736837   3.461294   4.210048   3.685664   3.233362
    18  C    4.342800   6.227388   6.359639   4.799949   6.255834
    19  H    4.693509   6.919123   6.640003   4.726079   7.187922
    20  H    4.693509   5.907688   6.469367   5.463502   5.657116
    21  H    5.412800   7.269638   7.418577   5.850274   7.253190
    22  C    3.639851   2.552217   1.540000   3.909957   2.705289
    23  O    4.199596   3.318199   2.463531   4.666551   3.072098
    24  O    4.630952   3.314091   2.463531   4.700137   3.609539
    25  C    5.954808   4.584759   3.791984   6.073090   4.670818
    26  H    6.653146   5.073430   4.480615   6.724435   5.202457
    27  H    6.339756   5.288921   4.255205   6.358116   5.438830
    28  H    6.113358   4.671460   4.017168   6.405925   4.510371
                    6          7          8          9         10
     6  H    0.000000
     7  H    2.502990   0.000000
     8  S    2.113541   2.660851   0.000000
     9  N    3.226871   2.080043   2.348121   0.000000
    10  H    3.505729   2.925356   2.678803   1.000000   0.000000
    11  C    4.497831   3.907136   2.494398   2.510168   2.706262
    12  C    5.690256   4.619212   3.738430   3.349791   3.671171
    13  C    4.842845   4.891671   2.873628   3.352577   3.161885
    14  C    6.910152   6.005935   4.874978   4.591305   4.722795
    15  H    5.836294   4.343596   4.070067   3.405009   3.947149
    16  C    6.230918   6.217925   4.248209   4.593338   4.338758
    17  H    4.280348   4.841146   2.545861   3.409842   3.072942
    18  C    7.139529   6.688347   5.079480   5.100874   4.997846
    19  H    7.821111   6.697074   5.816316   5.383365   5.580961
    20  H    6.740090   7.029984   4.872934   5.386424   5.001013
    21  H    8.176369   7.754207   6.117152   6.139248   5.988507
    22  C    2.915319   2.125840   3.736333   2.514202   2.734628
    23  O    3.853994   3.245677   4.427948   2.838308   2.646853
    24  O    3.272853   2.597309   4.573844   3.681279   4.015666
    25  C    4.506610   3.998405   5.912469   4.856740   5.029230
    26  H    4.773185   4.585808   6.436599   5.686826   5.892148
    27  H    5.313757   4.333986   6.514356   5.172711   5.410849
    28  H    4.696360   4.475291   6.039322   4.913368   4.869213
                   11         12         13         14         15
    11  C    0.000000
    12  C    1.401400   0.000000
    13  C    1.401400   2.427296   0.000000
    14  C    2.427296   1.401400   2.802800   0.000000
    15  H    2.146700   1.070000   3.396345   2.146700   0.000000
    16  C    2.427296   2.802800   1.401400   2.427296   3.872800
    17  H    2.146700   3.396345   1.070000   3.872800   4.280590
    18  C    2.802800   2.427296   2.427296   1.401400   3.396345
    19  H    3.396345   2.146700   3.872800   1.070000   2.471400
    20  H    3.396345   3.872800   2.146700   3.396345   4.942800
    21  H    3.872800   3.396345   3.396345   2.146700   4.280590
    22  C    4.962744   5.828508   5.632781   7.100252   5.717940
    23  O    5.258531   6.100909   5.769174   7.240251   6.088137
    24  O    6.062498   6.888278   6.787916   8.213696   6.668940
    25  C    7.320142   8.124846   7.983444   9.412367   7.899783
    26  H    8.080648   8.935533   8.716398  10.250334   8.708283
    27  H    7.662391   8.311110   8.443274   9.592367   7.975957
    28  H    7.369035   8.244815   7.881640   9.458797   8.133386
                   16         17         18         19         20
    16  C    0.000000
    17  H    2.146700   0.000000
    18  C    1.401400   3.396345   0.000000
    19  H    3.396345   4.942800   2.146700   0.000000
    20  H    1.070000   2.471400   2.146700   4.280590   0.000000
    21  H    2.146700   4.280590   1.070000   2.471400   2.471400
    22  C    6.940484   5.360856   7.583733   7.854350   7.598340
    23  O    6.963011   5.488276   7.619217   7.991946   7.544998
    24  O    8.129714   6.484922   8.762805   8.931639   8.795093
    25  C    9.290582   7.641317   9.936979  10.110691   9.910058
    26  H   10.059881   8.307384  10.758628  10.969051  10.653570
    27  H    9.707103   8.217111  10.226934  10.201434  10.391069
    28  H    9.143967   7.471513   9.863389  10.200654   9.681164
                   21         22         23         24         25
    21  H    0.000000
    22  C    8.614569   0.000000
    23  O    8.590810   1.301300   0.000000
    24  O    9.808855   1.301300   2.253918   0.000000
    25  C   10.960266   2.366250   2.669278   1.430000   0.000000
    26  H   11.796282   3.193333   3.637071   2.051796   1.070000
    27  H   11.236035   2.868490   3.047953   2.051796   1.070000
    28  H   10.855407   2.501819   2.313381   2.051796   1.070000
                   26         27         28
    26  H    0.000000
    27  H    1.747303   0.000000
    28  H    1.747303   1.747303   0.000000
 Stoichiometry    C11H13NO2S
 Framework group  C1[X(C11H13NO2S)]
 Deg. of freedom    78
 Full point group                 C1      NOp   1
 Largest Abelian subgroup         C1      NOp   1
 Largest concise Abelian subgroup C1      NOp   1
                         Standard orientation:                         
 ---------------------------------------------------------------------
 Center     Atomic      Atomic             Coordinates (Angstroms)
 Number     Number       Type             X           Y           Z
 ---------------------------------------------------------------------
      1          6           0        0.565885    0.211556   -0.691272
      2          6           0       -1.193390    1.447859    0.062940
      3          6           0       -1.590932    0.078572   -0.436811
      4          1           0        0.464533    0.055240   -1.744929
      5          1           0       -1.208797    1.428899    1.132662
      6          1           0       -1.832874    2.236333   -0.275098
      7          1           0       -1.688347    0.059569   -1.502198
      8         16           0        0.177239    1.592430   -0.384139
      9          7           0       -0.414038   -0.650581   -0.019496
     10          1           0       -0.310796   -0.663751    0.975073
     11          6           0        2.018520   -0.086864   -0.276064
     12          6           0        2.770282   -1.032236   -0.986731
     13          6           0        2.588656    0.586946    0.812443
     14          6           0        4.092179   -1.303798   -0.608891
     15          1           0        2.334969   -1.546707   -1.817828
     16          6           0        3.910555    0.315386    1.190281
     17          1           0        2.014670    1.308759    1.355053
     18          6           0        4.662317   -0.629985    0.479613
     19          1           0        4.666165   -2.025612   -1.151500
     20          1           0        4.345867    0.829858    2.021377
     21          1           0        5.671615   -0.837328    0.768101
     22          6           0       -2.912352   -0.435971    0.163770
     23          8           0       -2.899853   -1.132579    1.262843
     24          8           0       -4.041449   -0.174152   -0.427814
     25          6           0       -5.268481   -0.651944    0.129867
     26          1           0       -6.059792    0.024670   -0.116958
     27          1           0       -5.488988   -1.619677   -0.269844
     28          1           0       -5.174793   -0.718332    1.193688
 ---------------------------------------------------------------------
 Rotational constants (GHZ):      1.6209226      0.2472822      0.2358401
 Leave Link  202 at Fri Sep  5 00:08:24 2014, MaxMem=  2147483648 cpu:         2.1
 (Enter /home/ik1r11/g09/l301.exe)
 Standard basis: CC-pVDZ (5D, 7F)
 Ernie: Thresh=  0.10000D-02 Tol=  0.10000D-05 Strict=F.
 Ernie:  38 primitive shells out of 423 were deleted.
 There are   294 symmetry adapted cartesian basis functions of A   symmetry.
 There are   279 symmetry adapted basis functions of A   symmetry.
   279 basis functions,   624 primitive gaussians,   294 cartesian basis functions
    59 alpha electrons       59 beta electrons
       nuclear repulsion energy      1105.6966875536 Hartrees.
 IExCor= 4235 DFT=T Ex+Corr=M06 ExCW=0 ScaHFX=  0.270000
 ScaDFX=  1.000000  1.000000  1.000000  1.000000 ScalE2=  1.000000  1.000000
 IRadAn=      5 IRanWt=     -1 IRanGd=            0 ICorTp=0 IEmpDi=  4
 NAtoms=   28 NActive=   28 NUniq=   28 SFac= 1.00D+00 NAtFMM=   60 NAOKFM=F Big=F
 Integral buffers will be    131072 words long.
 Raffenetti 2 integral format.
 Two-electron integral symmetry is turned on.
 Leave Link  301 at Fri Sep  5 00:08:24 2014, MaxMem=  2147483648 cpu:         4.0
 (Enter /home/ik1r11/g09/l302.exe)
 NPDir=0 NMtPBC=     1 NCelOv=     1 NCel=       1 NClECP=     1 NCelD=      1
         NCelK=      1 NCelE2=     1 NClLst=     1 CellRange=     0.0.
 One-electron integrals computed using PRISM.
 NBasis=   279 RedAO= T EigKep=  3.27D-04  NBF=   279
 NBsUse=   279 1.00D-06 EigRej= -1.00D+00 NBFU=   279
 Precomputing XC quadrature grid using
 IXCGrd= 4 IRadAn=           5 IRanWt=          -1 IRanGd=           0 AccXCQ= 0.00D+00.
 Generated NRdTot=       0 NPtTot=           0 NUsed=           0 NTot=          32
 NSgBfM=   293   293   293   293   293 MxSgAt=    28 MxSgA2=    28.
 Leave Link  302 at Fri Sep  5 00:08:25 2014, MaxMem=  2147483648 cpu:         7.7
 (Enter /home/ik1r11/g09/l303.exe)
 DipDrv:  MaxL=1.
 Leave Link  303 at Fri Sep  5 00:08:26 2014, MaxMem=  2147483648 cpu:         0.8
 (Enter /home/ik1r11/g09/l401.exe)
 ExpMin= 1.22D-01 ExpMax= 1.11D+05 ExpMxC= 1.07D+03 IAcc=3 IRadAn=         5 AccDes= 0.00D+00
 Harris functional with IExCor= 1009 and IRadAn=       5 diagonalized for initial guess.
 HarFok:  IExCor= 1009 AccDes= 0.00D+00 IRadAn=         5 IDoV= 1 UseB2=F ITyADJ=14
 ICtDFT=  3500011 ScaDFX=  1.000000  1.000000  1.000000  1.000000
 FoFCou: FMM=F IPFlag=           0 FMFlag=      100000 FMFlg1=           0
         NFxFlg=           0 DoJE=T BraDBF=F KetDBF=T FulRan=T
         wScrn=  0.000000 ICntrl=     500 IOpCl=  0 I1Cent=   200000004 NGrid=           0
         NMat0=    1 NMatS0=      1 NMatT0=    0 NMatD0=    1 NMtDS0=    0 NMtDT0=    0
 Petite list used in FoFCou.
 Harris En= -1029.41585517331    
 JPrj=0 DoOrth=F DoCkMO=F.
 Leave Link  401 at Fri Sep  5 00:08:28 2014, MaxMem=  2147483648 cpu:        24.3
 (Enter /home/ik1r11/g09/l502.exe)
 Closed shell SCF:
 Using DIIS extrapolation, IDIIS=  1040.
 Integral symmetry usage will be decided dynamically.
 Keep R1 ints in memory in canonical form, NReq=775982162.
 IVT=      284792 IEndB=      284792 NGot=  2147483648 MDV=  1384337527
 LenX=  1384337527 LenY=  1384250650
 Requested convergence on RMS density matrix=1.00D-08 within 128 cycles.
 Requested convergence on MAX density matrix=1.00D-06.
 Requested convergence on             energy=1.00D-06.
 No special actions if energy rises.
 FoFCou: FMM=F IPFlag=           0 FMFlag=           0 FMFlg1=           0
         NFxFlg=           0 DoJE=F BraDBF=F KetDBF=F FulRan=T
         wScrn=  0.000000 ICntrl=     600 IOpCl=  0 I1Cent=           0 NGrid=           0
         NMat0=    1 NMatS0=  39060 NMatT0=    0 NMatD0=    1 NMtDS0=    0 NMtDT0=    0
 Symmetry not used in FoFCou.
 Integral accuracy reduced to 1.0D-05 until final iterations.

 Cycle   1  Pass 0  IDiag  1:
 E= -1029.42115691715    
 DIIS: error= 3.02D-02 at cycle   1 NSaved=   1.
 NSaved= 1 IEnMin= 1 EnMin= -1029.42115691715     IErMin= 1 ErrMin= 3.02D-02
 ErrMax= 3.02D-02  0.00D+00 EMaxC= 1.00D-01 BMatC= 3.01D-01 BMatP= 3.01D-01
 IDIUse=3 WtCom= 6.98D-01 WtEn= 3.02D-01
 Coeff-Com:  0.100D+01
 Coeff-En:   0.100D+01
 Coeff:      0.100D+01
 Gap=     0.263 Goal=   None    Shift=    0.000
 GapD=    0.263 DampG=1.000 DampE=0.500 DampFc=0.5000 IDamp=-1.
 Damping current iteration by 5.00D-01
 RMSDP=4.84D-03 MaxDP=1.90D-01              OVMax= 3.13D-01

 Cycle   2  Pass 0  IDiag  1:
 E= -1029.51508893955     Delta-E=       -0.093932022400 Rises=F Damp=T
 DIIS: error= 1.17D-02 at cycle   2 NSaved=   2.
 NSaved= 2 IEnMin= 2 EnMin= -1029.51508893955     IErMin= 2 ErrMin= 1.17D-02
 ErrMax= 1.17D-02  0.00D+00 EMaxC= 1.00D-01 BMatC= 4.70D-02 BMatP= 3.01D-01
 IDIUse=3 WtCom= 8.83D-01 WtEn= 1.17D-01
 Coeff-Com:  0.210D+00 0.790D+00
 Coeff-En:   0.304D+00 0.696D+00
 Coeff:      0.221D+00 0.779D+00
 Gap=     0.274 Goal=   None    Shift=    0.000
 RMSDP=1.51D-03 MaxDP=6.73D-02 DE=-9.39D-02 OVMax= 2.18D-01

 Cycle   3  Pass 0  IDiag  1:
 E= -1029.67977038865     Delta-E=       -0.164681449097 Rises=F Damp=F
 DIIS: error= 1.36D-02 at cycle   3 NSaved=   3.
 NSaved= 3 IEnMin= 3 EnMin= -1029.67977038865     IErMin= 2 ErrMin= 1.17D-02
 ErrMax= 1.36D-02  0.00D+00 EMaxC= 1.00D-01 BMatC= 5.67D-02 BMatP= 4.70D-02
 IDIUse=2 WtCom= 0.00D+00 WtEn= 1.00D+00
 Coeff-En:   0.000D+00 0.000D+00 0.100D+01
 Coeff:      0.000D+00 0.000D+00 0.100D+01
 Gap=     0.189 Goal=   None    Shift=    0.000
 RMSDP=2.26D-03 MaxDP=1.41D-01 DE=-1.65D-01 OVMax= 2.46D-01

 Cycle   4  Pass 0  IDiag  1:
 E= -1029.45745467920     Delta-E=        0.222315709453 Rises=F Damp=F
 DIIS: error= 3.62D-02 at cycle   4 NSaved=   4.
 NSaved= 4 IEnMin= 3 EnMin= -1029.67977038865     IErMin= 2 ErrMin= 1.17D-02
 ErrMax= 3.62D-02  0.00D+00 EMaxC= 1.00D-01 BMatC= 3.37D-01 BMatP= 4.70D-02
 IDIUse=2 WtCom= 0.00D+00 WtEn= 1.00D+00
 Coeff-En:   0.000D+00 0.000D+00 0.798D+00 0.202D+00
 Coeff:      0.000D+00 0.000D+00 0.798D+00 0.202D+00
 Gap=     0.235 Goal=   None    Shift=    0.000
 RMSDP=1.23D-03 MaxDP=7.38D-02 DE= 2.22D-01 OVMax= 1.58D-01

 Cycle   5  Pass 0  IDiag  1:
 E= -1029.70845651365     Delta-E=       -0.251001834456 Rises=F Damp=F
 DIIS: error= 9.34D-03 at cycle   5 NSaved=   5.
 NSaved= 5 IEnMin= 5 EnMin= -1029.70845651365     IErMin= 5 ErrMin= 9.34D-03
 ErrMax= 9.34D-03  0.00D+00 EMaxC= 1.00D-01 BMatC= 2.33D-02 BMatP= 4.70D-02
 IDIUse=3 WtCom= 9.07D-01 WtEn= 9.34D-02
 Coeff-Com: -0.805D-02 0.691D-01 0.289D+00-0.106D+00 0.756D+00
 Coeff-En:   0.000D+00 0.000D+00 0.328D+00 0.000D+00 0.672D+00
 Coeff:     -0.730D-02 0.627D-01 0.292D+00-0.959D-01 0.748D+00
 Gap=     0.192 Goal=   None    Shift=    0.000
 RMSDP=4.33D-04 MaxDP=2.66D-02 DE=-2.51D-01 OVMax= 4.84D-02

 Cycle   6  Pass 0  IDiag  1:
 E= -1029.72733688965     Delta-E=       -0.018880375997 Rises=F Damp=F
 DIIS: error= 3.71D-04 at cycle   6 NSaved=   6.
 NSaved= 6 IEnMin= 6 EnMin= -1029.72733688965     IErMin= 6 ErrMin= 3.71D-04
 ErrMax= 3.71D-04  0.00D+00 EMaxC= 1.00D-01 BMatC= 7.10D-05 BMatP= 2.33D-02
 IDIUse=3 WtCom= 9.96D-01 WtEn= 3.71D-03
 Coeff-Com: -0.635D-02 0.266D-01 0.123D+00-0.562D-01 0.378D+00 0.535D+00
 Coeff-En:   0.000D+00 0.000D+00 0.000D+00 0.000D+00 0.000D+00 0.100D+01
 Coeff:     -0.633D-02 0.265D-01 0.122D+00-0.560D-01 0.377D+00 0.537D+00
 Gap=     0.192 Goal=   None    Shift=    0.000
 RMSDP=3.30D-05 MaxDP=1.83D-03 DE=-1.89D-02 OVMax= 1.85D-03

 Cycle   7  Pass 0  IDiag  1:
 E= -1029.72738875176     Delta-E=       -0.000051862113 Rises=F Damp=F
 DIIS: error= 1.31D-04 at cycle   7 NSaved=   7.
 NSaved= 7 IEnMin= 7 EnMin= -1029.72738875176     IErMin= 7 ErrMin= 1.31D-04
 ErrMax= 1.31D-04  0.00D+00 EMaxC= 1.00D-01 BMatC= 7.28D-06 BMatP= 7.10D-05
 IDIUse=3 WtCom= 9.99D-01 WtEn= 1.31D-03
 Coeff-Com: -0.130D-02 0.179D-03 0.122D-01-0.755D-02 0.478D-01 0.264D+00
 Coeff-Com:  0.685D+00
 Coeff-En:   0.000D+00 0.000D+00 0.000D+00 0.000D+00 0.000D+00 0.626D-01
 Coeff-En:   0.937D+00
 Coeff:     -0.130D-02 0.178D-03 0.122D-01-0.754D-02 0.477D-01 0.263D+00
 Coeff:      0.685D+00
 Gap=     0.192 Goal=   None    Shift=    0.000
 RMSDP=9.36D-06 MaxDP=5.28D-04 DE=-5.19D-05 OVMax= 5.35D-04

 Initial convergence to 1.0D-05 achieved.  Increase integral accuracy.
 Cycle   8  Pass 1  IDiag  1:
 E= -1029.72747632526     Delta-E=       -0.000087573497 Rises=F Damp=F
 DIIS: error= 2.10D-05 at cycle   1 NSaved=   1.
 NSaved= 1 IEnMin= 1 EnMin= -1029.72747632526     IErMin= 1 ErrMin= 2.10D-05
 ErrMax= 2.10D-05  0.00D+00 EMaxC= 1.00D-01 BMatC= 7.29D-07 BMatP= 7.29D-07
 IDIUse=1 WtCom= 1.00D+00 WtEn= 0.00D+00
 Coeff-Com:  0.100D+01
 Coeff:      0.100D+01
 Gap=     0.192 Goal=   None    Shift=    0.000
 RMSDP=9.36D-06 MaxDP=5.28D-04 DE=-8.76D-05 OVMax= 1.99D-04

 Cycle   9  Pass 1  IDiag  1:
 E= -1029.72747673810     Delta-E=       -0.000000412840 Rises=F Damp=F
 DIIS: error= 2.72D-05 at cycle   2 NSaved=   2.
 NSaved= 2 IEnMin= 2 EnMin= -1029.72747673810     IErMin= 1 ErrMin= 2.10D-05
 ErrMax= 2.72D-05  0.00D+00 EMaxC= 1.00D-01 BMatC= 4.50D-07 BMatP= 7.29D-07
 IDIUse=1 WtCom= 1.00D+00 WtEn= 0.00D+00
 Coeff-Com:  0.424D+00 0.576D+00
 Coeff:      0.424D+00 0.576D+00
 Gap=     0.192 Goal=   None    Shift=    0.000
 RMSDP=2.84D-06 MaxDP=1.24D-04 DE=-4.13D-07 OVMax= 1.70D-04

 Cycle  10  Pass 1  IDiag  1:
 E= -1029.72747706477     Delta-E=       -0.000000326666 Rises=F Damp=F
 DIIS: error= 1.15D-05 at cycle   3 NSaved=   3.
 NSaved= 3 IEnMin= 3 EnMin= -1029.72747706477     IErMin= 3 ErrMin= 1.15D-05
 ErrMax= 1.15D-05  0.00D+00 EMaxC= 1.00D-01 BMatC= 7.83D-08 BMatP= 4.50D-07
 IDIUse=1 WtCom= 1.00D+00 WtEn= 0.00D+00
 Coeff-Com:  0.317D-01 0.293D+00 0.676D+00
 Coeff:      0.317D-01 0.293D+00 0.676D+00
 Gap=     0.192 Goal=   None    Shift=    0.000
 RMSDP=1.19D-06 MaxDP=4.91D-05 DE=-3.27D-07 OVMax= 1.02D-04

 Cycle  11  Pass 1  IDiag  1:
 E= -1029.72747712414     Delta-E=       -0.000000059379 Rises=F Damp=F
 DIIS: error= 5.54D-06 at cycle   4 NSaved=   4.
 NSaved= 4 IEnMin= 4 EnMin= -1029.72747712414     IErMin= 4 ErrMin= 5.54D-06
 ErrMax= 5.54D-06  0.00D+00 EMaxC= 1.00D-01 BMatC= 1.19D-08 BMatP= 7.83D-08
 IDIUse=1 WtCom= 1.00D+00 WtEn= 0.00D+00
 Coeff-Com: -0.494D-02 0.142D+00 0.408D+00 0.454D+00
 Coeff:     -0.494D-02 0.142D+00 0.408D+00 0.454D+00
 Gap=     0.192 Goal=   None    Shift=    0.000
 RMSDP=4.61D-07 MaxDP=1.31D-05 DE=-5.94D-08 OVMax= 4.08D-05

 Cycle  12  Pass 1  IDiag  1:
 E= -1029.72747713609     Delta-E=       -0.000000011940 Rises=F Damp=F
 DIIS: error= 9.36D-07 at cycle   5 NSaved=   5.
 NSaved= 5 IEnMin= 5 EnMin= -1029.72747713609     IErMin= 5 ErrMin= 9.36D-07
 ErrMax= 9.36D-07  0.00D+00 EMaxC= 1.00D-01 BMatC= 5.55D-10 BMatP= 1.19D-08
 IDIUse=1 WtCom= 1.00D+00 WtEn= 0.00D+00
 Coeff-Com: -0.551D-02 0.491D-01 0.158D+00 0.238D+00 0.560D+00
 Coeff:     -0.551D-02 0.491D-01 0.158D+00 0.238D+00 0.560D+00
 Gap=     0.192 Goal=   None    Shift=    0.000
 RMSDP=1.13D-07 MaxDP=4.76D-06 DE=-1.19D-08 OVMax= 6.43D-06

 Cycle  13  Pass 1  IDiag  1:
 E= -1029.72747713649     Delta-E=       -0.000000000408 Rises=F Damp=F
 DIIS: error= 6.82D-07 at cycle   6 NSaved=   6.
 NSaved= 6 IEnMin= 6 EnMin= -1029.72747713649     IErMin= 6 ErrMin= 6.82D-07
 ErrMax= 6.82D-07  0.00D+00 EMaxC= 1.00D-01 BMatC= 1.27D-10 BMatP= 5.55D-10
 IDIUse=1 WtCom= 1.00D+00 WtEn= 0.00D+00
 Coeff-Com: -0.256D-02 0.636D-02 0.299D-01 0.726D-01 0.347D+00 0.546D+00
 Coeff:     -0.256D-02 0.636D-02 0.299D-01 0.726D-01 0.347D+00 0.546D+00
 Gap=     0.192 Goal=   None    Shift=    0.000
 RMSDP=4.16D-08 MaxDP=2.58D-06 DE=-4.08D-10 OVMax= 3.58D-06

 Cycle  14  Pass 1  IDiag  1:
 E= -1029.72747713655     Delta-E=       -0.000000000053 Rises=F Damp=F
 DIIS: error= 1.89D-07 at cycle   7 NSaved=   7.
 NSaved= 7 IEnMin= 7 EnMin= -1029.72747713655     IErMin= 7 ErrMin= 1.89D-07
 ErrMax= 1.89D-07  0.00D+00 EMaxC= 1.00D-01 BMatC= 1.48D-11 BMatP= 1.27D-10
 IDIUse=1 WtCom= 1.00D+00 WtEn= 0.00D+00
 Coeff-Com: -0.871D-03-0.189D-02-0.403D-03 0.158D-01 0.131D+00 0.317D+00
 Coeff-Com:  0.540D+00
 Coeff:     -0.871D-03-0.189D-02-0.403D-03 0.158D-01 0.131D+00 0.317D+00
 Coeff:      0.540D+00
 Gap=     0.192 Goal=   None    Shift=    0.000
 RMSDP=1.77D-08 MaxDP=6.96D-07 DE=-5.28D-11 OVMax= 1.30D-06

 Cycle  15  Pass 1  IDiag  1:
 E= -1029.72747713658     Delta-E=       -0.000000000038 Rises=F Damp=F
 DIIS: error= 7.81D-08 at cycle   8 NSaved=   8.
 NSaved= 8 IEnMin= 8 EnMin= -1029.72747713658     IErMin= 8 ErrMin= 7.81D-08
 ErrMax= 7.81D-08  0.00D+00 EMaxC= 1.00D-01 BMatC= 2.76D-12 BMatP= 1.48D-11
 IDIUse=1 WtCom= 1.00D+00 WtEn= 0.00D+00
 Coeff-Com:  0.627D-06-0.243D-02-0.620D-02-0.501D-02 0.390D-02 0.865D-01
 Coeff-Com:  0.341D+00 0.582D+00
 Coeff:      0.627D-06-0.243D-02-0.620D-02-0.501D-02 0.390D-02 0.865D-01
 Coeff:      0.341D+00 0.582D+00
 Gap=     0.192 Goal=   None    Shift=    0.000
 RMSDP=7.12D-09 MaxDP=2.38D-07 DE=-3.77D-11 OVMax= 4.40D-07

 SCF Done:  E(RM06) =  -1029.72747714     A.U. after   15 cycles
            NFock= 15  Conv=0.71D-08     -V/T= 2.0025
 KE= 1.027195096469D+03 PE=-4.631493814035D+03 EE= 1.468874552876D+03
 Leave Link  502 at Fri Sep  5 00:09:20 2014, MaxMem=  2147483648 cpu:       584.1
 (Enter /home/ik1r11/g09/l601.exe)
 Copying SCF densities to generalized density rwf, IOpCl= 0 IROHF=0.

 **********************************************************************

            Population analysis using the SCF density.

 **********************************************************************

 Orbital symmetries:
       Occupied  (A) (A) (A) (A) (A) (A) (A) (A) (A) (A) (A) (A)
                 (A) (A) (A) (A) (A) (A) (A) (A) (A) (A) (A) (A)
                 (A) (A) (A) (A) (A) (A) (A) (A) (A) (A) (A) (A)
                 (A) (A) (A) (A) (A) (A) (A) (A) (A) (A) (A) (A)
                 (A) (A) (A) (A) (A) (A) (A) (A) (A) (A) (A)
       Virtual   (A) (A) (A) (A) (A) (A) (A) (A) (A) (A) (A) (A)
                 (A) (A) (A) (A) (A) (A) (A) (A) (A) (A) (A) (A)
                 (A) (A) (A) (A) (A) (A) (A) (A) (A) (A) (A) (A)
                 (A) (A) (A) (A) (A) (A) (A) (A) (A) (A) (A) (A)
                 (A) (A) (A) (A) (A) (A) (A) (A) (A) (A) (A) (A)
                 (A) (A) (A) (A) (A) (A) (A) (A) (A) (A) (A) (A)
                 (A) (A) (A) (A) (A) (A) (A) (A) (A) (A) (A) (A)
                 (A) (A) (A) (A) (A) (A) (A) (A) (A) (A) (A) (A)
                 (A) (A) (A) (A) (A) (A) (A) (A) (A) (A) (A) (A)
                 (A) (A) (A) (A) (A) (A) (A) (A) (A) (A) (A) (A)
                 (A) (A) (A) (A) (A) (A) (A) (A) (A) (A) (A) (A)
                 (A) (A) (A) (A) (A) (A) (A) (A) (A) (A) (A) (A)
                 (A) (A) (A) (A) (A) (A) (A) (A) (A) (A) (A) (A)
                 (A) (A) (A) (A) (A) (A) (A) (A) (A) (A) (A) (A)
                 (A) (A) (A) (A) (A) (A) (A) (A) (A) (A) (A) (A)
                 (A) (A) (A) (A) (A) (A) (A) (A) (A) (A) (A) (A)
                 (A) (A) (A) (A) (A) (A) (A) (A) (A) (A) (A) (A)
                 (A) (A) (A) (A) (A) (A) (A) (A) (A) (A) (A) (A)
                 (A) (A) (A) (A)
 The electronic state is 1-A.
 Alpha  occ. eigenvalues --  -88.99466 -19.29091 -19.20399 -14.40037 -10.39559
 Alpha  occ. eigenvalues --  -10.31220 -10.31070 -10.28779 -10.26728 -10.25960
 Alpha  occ. eigenvalues --  -10.25755 -10.25721 -10.25692 -10.25668 -10.25462
 Alpha  occ. eigenvalues --   -8.03037  -5.94705  -5.94110  -5.93406  -1.14965
 Alpha  occ. eigenvalues --   -1.03127  -1.00117  -0.87213  -0.86590  -0.81686
 Alpha  occ. eigenvalues --   -0.77551  -0.75943  -0.74164  -0.68894  -0.62788
 Alpha  occ. eigenvalues --   -0.62489  -0.60144  -0.57637  -0.56566  -0.53741
 Alpha  occ. eigenvalues --   -0.52074  -0.50872  -0.50457  -0.49360  -0.47842
 Alpha  occ. eigenvalues --   -0.46548  -0.46413  -0.45224  -0.43317  -0.41848
 Alpha  occ. eigenvalues --   -0.41483  -0.41296  -0.39977  -0.37713  -0.36537
 Alpha  occ. eigenvalues --   -0.35568  -0.35346  -0.32325  -0.30984  -0.27808
 Alpha  occ. eigenvalues --   -0.26637  -0.26522  -0.26068  -0.20194
 Alpha virt. eigenvalues --   -0.01036  -0.00690  -0.00218   0.05675   0.06397
 Alpha virt. eigenvalues --    0.07620   0.08153   0.09836   0.10884   0.11447
 Alpha virt. eigenvalues --    0.11967   0.12257   0.12518   0.13724   0.14010
 Alpha virt. eigenvalues --    0.14207   0.15244   0.16406   0.16471   0.18789
 Alpha virt. eigenvalues --    0.19414   0.21755   0.24422   0.25695   0.27078
 Alpha virt. eigenvalues --    0.27770   0.28886   0.30363   0.30669   0.32780
 Alpha virt. eigenvalues --    0.34573   0.37495   0.38537   0.40804   0.41461
 Alpha virt. eigenvalues --    0.42791   0.44087   0.44998   0.46337   0.46866
 Alpha virt. eigenvalues --    0.47703   0.48809   0.49557   0.50067   0.50654
 Alpha virt. eigenvalues --    0.51246   0.51608   0.52076   0.52641   0.52985
 Alpha virt. eigenvalues --    0.53437   0.54245   0.55248   0.56155   0.56771
 Alpha virt. eigenvalues --    0.58247   0.59381   0.59827   0.60185   0.60580
 Alpha virt. eigenvalues --    0.61517   0.61943   0.62742   0.62814   0.63494
 Alpha virt. eigenvalues --    0.64423   0.65074   0.66186   0.66606   0.67839
 Alpha virt. eigenvalues --    0.68957   0.69594   0.70150   0.71554   0.72295
 Alpha virt. eigenvalues --    0.75057   0.75694   0.77927   0.82047   0.84234
 Alpha virt. eigenvalues --    0.85948   0.86554   0.87972   0.88971   0.90567
 Alpha virt. eigenvalues --    0.91152   0.91791   0.93524   0.94757   0.94995
 Alpha virt. eigenvalues --    0.98443   0.98980   0.99672   0.99753   1.01177
 Alpha virt. eigenvalues --    1.01956   1.02511   1.05095   1.05449   1.05978
 Alpha virt. eigenvalues --    1.06983   1.09414   1.10532   1.12633   1.14814
 Alpha virt. eigenvalues --    1.15521   1.16904   1.18967   1.19937   1.23171
 Alpha virt. eigenvalues --    1.23993   1.25201   1.28296   1.29722   1.30645
 Alpha virt. eigenvalues --    1.34014   1.36245   1.37890   1.38540   1.39956
 Alpha virt. eigenvalues --    1.41002   1.45179   1.46343   1.47026   1.48066
 Alpha virt. eigenvalues --    1.48361   1.50115   1.50875   1.54840   1.55668
 Alpha virt. eigenvalues --    1.57210   1.57680   1.58580   1.59365   1.59777
 Alpha virt. eigenvalues --    1.60526   1.61284   1.62257   1.62706   1.64540
 Alpha virt. eigenvalues --    1.66082   1.66474   1.66752   1.67222   1.68623
 Alpha virt. eigenvalues --    1.70050   1.71273   1.72038   1.73071   1.74372
 Alpha virt. eigenvalues --    1.75593   1.77142   1.77409   1.78916   1.81143
 Alpha virt. eigenvalues --    1.82501   1.83280   1.83816   1.84102   1.85333
 Alpha virt. eigenvalues --    1.86927   1.88812   1.90020   1.93218   1.95875
 Alpha virt. eigenvalues --    1.96012   1.97965   1.98723   1.99928   2.00668
 Alpha virt. eigenvalues --    2.01073   2.01725   2.04215   2.06633   2.07533
 Alpha virt. eigenvalues --    2.08945   2.11916   2.12035   2.17011   2.18399
 Alpha virt. eigenvalues --    2.18723   2.20489   2.23358   2.24766   2.25957
 Alpha virt. eigenvalues --    2.27650   2.31285   2.37265   2.37838   2.38152
 Alpha virt. eigenvalues --    2.39923   2.41389   2.42616   2.43783   2.44577
 Alpha virt. eigenvalues --    2.46126   2.50388   2.54723   2.60126   2.61481
 Alpha virt. eigenvalues --    2.62799   2.64885   2.65591   2.67054   2.69693
 Alpha virt. eigenvalues --    2.70930   2.74723   2.78045   2.79186   2.84934
 Alpha virt. eigenvalues --    2.86256   2.91757   2.92925   3.02923   3.12141
 Alpha virt. eigenvalues --    3.14734   3.33287   3.38384   3.46164   3.48530
          Condensed to atoms (all electrons):
               1          2          3          4          5          6
     1  C    4.931006  -0.087143  -0.089465   0.379513   0.002773   0.007208
     2  C   -0.087143   4.687627   0.407126  -0.006920   0.377912   0.354192
     3  C   -0.089465   0.407126   4.980009  -0.004240  -0.026875  -0.002539
     4  H    0.379513  -0.006920  -0.004240   0.797424  -0.004189   0.003245
     5  H    0.002773   0.377912  -0.026875  -0.004189   0.777702  -0.062036
     6  H    0.007208   0.354192  -0.002539   0.003245  -0.062036   0.688388
     7  H    0.008193  -0.029506   0.345993   0.000925   0.012038  -0.006715
     8  S    0.263381   0.383437  -0.076237  -0.124557  -0.120812  -0.040445
     9  N    0.421623  -0.075041   0.369372  -0.038380  -0.001370   0.008493
    10  H   -0.024665  -0.000281  -0.048434   0.009625   0.002794   0.000689
    11  C    0.344645   0.001860   0.005371  -0.040035   0.004420  -0.001005
    12  C   -0.075027  -0.000369  -0.000136  -0.014822  -0.000085   0.000012
    13  C   -0.096073   0.000154   0.000041   0.012850   0.000493   0.000044
    14  C    0.007762   0.000010   0.000018   0.000256   0.000001   0.000000
    15  H   -0.016088  -0.000039  -0.000147   0.005131  -0.000015   0.000001
    16  C    0.008983   0.000044   0.000009  -0.000097  -0.000028   0.000004
    17  H   -0.025764  -0.002602  -0.000008   0.001653  -0.000948   0.000190
    18  C    0.000357   0.000000   0.000001  -0.000067   0.000003   0.000000
    19  H   -0.000350   0.000000  -0.000001   0.000019   0.000000   0.000000
    20  H   -0.000357  -0.000001  -0.000001   0.000011  -0.000002   0.000000
    21  H    0.000032   0.000000   0.000000   0.000001   0.000000   0.000000
    22  C    0.004311  -0.046570   0.268155   0.000473   0.000003  -0.002848
    23  O    0.000284  -0.004115  -0.066218  -0.000005   0.004728  -0.000062
    24  O   -0.000024   0.000818  -0.043041  -0.000035  -0.000157   0.001478
    25  C    0.000009  -0.000180   0.006734   0.000002  -0.000030  -0.000050
    26  H   -0.000001   0.000032  -0.000242   0.000000  -0.000011   0.000001
    27  H    0.000001  -0.000008  -0.000158   0.000000  -0.000001   0.000009
    28  H    0.000000  -0.000100   0.002743  -0.000001   0.000006  -0.000002
               7          8          9         10         11         12
     1  C    0.008193   0.263381   0.421623  -0.024665   0.344645  -0.075027
     2  C   -0.029506   0.383437  -0.075041  -0.000281   0.001860  -0.000369
     3  C    0.345993  -0.076237   0.369372  -0.048434   0.005371  -0.000136
     4  H    0.000925  -0.124557  -0.038380   0.009625  -0.040035  -0.014822
     5  H    0.012038  -0.120812  -0.001370   0.002794   0.004420  -0.000085
     6  H   -0.006715  -0.040445   0.008493   0.000689  -0.001005   0.000012
     7  H    0.686073  -0.016781  -0.028892   0.008014   0.003273  -0.000159
     8  S   -0.016781  15.959915  -0.148266  -0.003890  -0.067530   0.013694
     9  N   -0.028892  -0.148266   6.361510   0.359650  -0.035020  -0.000795
    10  H    0.008014  -0.003890   0.359650   0.581138  -0.003000  -0.000559
    11  C    0.003273  -0.067530  -0.035020  -0.003000   5.107807   0.468551
    12  C   -0.000159   0.013694  -0.000795  -0.000559   0.468551   4.829966
    13  C    0.000033  -0.034426   0.001451   0.006032   0.436946  -0.023013
    14  C    0.000002  -0.000650  -0.000040  -0.000051   0.011611   0.488459
    15  H   -0.000067   0.001259   0.001406   0.000072  -0.052006   0.395457
    16  C    0.000000   0.000121   0.000064  -0.000084   0.006140  -0.072486
    17  H    0.000007   0.030108   0.000742   0.002007  -0.063214   0.011168
    18  C    0.000000  -0.000088   0.000034  -0.000031  -0.072592  -0.004947
    19  H    0.000000   0.000008  -0.000002   0.000003   0.009297  -0.043877
    20  H    0.000000   0.000101  -0.000001   0.000007   0.009161   0.000350
    21  H    0.000000   0.000004   0.000000   0.000000  -0.000144   0.009792
    22  C   -0.031405   0.006037  -0.036592  -0.004640  -0.000484  -0.000008
    23  O    0.003593  -0.000266  -0.001764   0.013874  -0.000009   0.000000
    24  O    0.006784  -0.000039   0.000556   0.000358   0.000000   0.000000
    25  C   -0.000745   0.000015  -0.000070  -0.000014   0.000000   0.000000
    26  H   -0.000085  -0.000001   0.000000  -0.000001   0.000000   0.000000
    27  H   -0.000008   0.000001   0.000011   0.000001   0.000000   0.000000
    28  H    0.000080   0.000006   0.000000  -0.000044   0.000000   0.000000
              13         14         15         16         17         18
     1  C   -0.096073   0.007762  -0.016088   0.008983  -0.025764   0.000357
     2  C    0.000154   0.000010  -0.000039   0.000044  -0.002602   0.000000
     3  C    0.000041   0.000018  -0.000147   0.000009  -0.000008   0.000001
     4  H    0.012850   0.000256   0.005131  -0.000097   0.001653  -0.000067
     5  H    0.000493   0.000001  -0.000015  -0.000028  -0.000948   0.000003
     6  H    0.000044   0.000000   0.000001   0.000004   0.000190   0.000000
     7  H    0.000033   0.000002  -0.000067   0.000000   0.000007   0.000000
     8  S   -0.034426  -0.000650   0.001259   0.000121   0.030108  -0.000088
     9  N    0.001451  -0.000040   0.001406   0.000064   0.000742   0.000034
    10  H    0.006032  -0.000051   0.000072  -0.000084   0.002007  -0.000031
    11  C    0.436946   0.011611  -0.052006   0.006140  -0.063214  -0.072592
    12  C   -0.023013   0.488459   0.395457  -0.072486   0.011168  -0.004947
    13  C    4.886758  -0.073383   0.011882   0.484244   0.395586  -0.007082
    14  C   -0.073383   4.753430  -0.048733   0.005329  -0.000728   0.493369
    15  H    0.011882  -0.048733   0.723004  -0.000789  -0.000163   0.010116
    16  C    0.484244   0.005329  -0.000789   4.753275  -0.043436   0.492069
    17  H    0.395586  -0.000728  -0.000163  -0.043436   0.719422   0.010103
    18  C   -0.007082   0.493369   0.010116   0.492069   0.010103   4.773948
    19  H    0.000391   0.391961  -0.015032   0.009095   0.000080  -0.050755
    20  H   -0.042736   0.009075   0.000075   0.392053  -0.015217  -0.051907
    21  H    0.010161  -0.050222  -0.000240  -0.048694  -0.000256   0.395513
    22  C   -0.000004   0.000000  -0.000003   0.000000  -0.000011   0.000000
    23  O   -0.000001   0.000000   0.000000   0.000000  -0.000003   0.000000
    24  O    0.000000   0.000000   0.000000   0.000000   0.000000   0.000000
    25  C    0.000000   0.000000   0.000000   0.000000   0.000000   0.000000
    26  H    0.000000   0.000000   0.000000   0.000000   0.000000   0.000000
    27  H    0.000000   0.000000   0.000000   0.000000   0.000000   0.000000
    28  H    0.000000   0.000000   0.000000   0.000000   0.000000   0.000000
              19         20         21         22         23         24
     1  C   -0.000350  -0.000357   0.000032   0.004311   0.000284  -0.000024
     2  C    0.000000  -0.000001   0.000000  -0.046570  -0.004115   0.000818
     3  C   -0.000001  -0.000001   0.000000   0.268155  -0.066218  -0.043041
     4  H    0.000019   0.000011   0.000001   0.000473  -0.000005  -0.000035
     5  H    0.000000  -0.000002   0.000000   0.000003   0.004728  -0.000157
     6  H    0.000000   0.000000   0.000000  -0.002848  -0.000062   0.001478
     7  H    0.000000   0.000000   0.000000  -0.031405   0.003593   0.006784
     8  S    0.000008   0.000101   0.000004   0.006037  -0.000266  -0.000039
     9  N   -0.000002  -0.000001   0.000000  -0.036592  -0.001764   0.000556
    10  H    0.000003   0.000007   0.000000  -0.004640   0.013874   0.000358
    11  C    0.009297   0.009161  -0.000144  -0.000484  -0.000009   0.000000
    12  C   -0.043877   0.000350   0.009792  -0.000008   0.000000   0.000000
    13  C    0.000391  -0.042736   0.010161  -0.000004  -0.000001   0.000000
    14  C    0.391961   0.009075  -0.050222   0.000000   0.000000   0.000000
    15  H   -0.015032   0.000075  -0.000240  -0.000003   0.000000   0.000000
    16  C    0.009095   0.392053  -0.048694   0.000000   0.000000   0.000000
    17  H    0.000080  -0.015217  -0.000256  -0.000011  -0.000003   0.000000
    18  C   -0.050755  -0.051907   0.395513   0.000000   0.000000   0.000000
    19  H    0.717002  -0.000284  -0.015252   0.000000   0.000000   0.000000
    20  H   -0.000284   0.717398  -0.015178   0.000000   0.000000   0.000000
    21  H   -0.015252  -0.015178   0.719124   0.000000   0.000000   0.000000
    22  C    0.000000   0.000000   0.000000   4.594586   0.642812   0.389761
    23  O    0.000000   0.000000   0.000000   0.642812   7.825873  -0.069418
    24  O    0.000000   0.000000   0.000000   0.389761  -0.069418   7.755900
    25  C    0.000000   0.000000   0.000000  -0.050657  -0.011968   0.298511
    26  H    0.000000   0.000000   0.000000   0.002448   0.000932  -0.017427
    27  H    0.000000   0.000000   0.000000   0.000268   0.000512  -0.024554
    28  H    0.000000   0.000000   0.000000  -0.001663   0.026089  -0.031568
              25         26         27         28
     1  C    0.000009  -0.000001   0.000001   0.000000
     2  C   -0.000180   0.000032  -0.000008  -0.000100
     3  C    0.006734  -0.000242  -0.000158   0.002743
     4  H    0.000002   0.000000   0.000000  -0.000001
     5  H   -0.000030  -0.000011  -0.000001   0.000006
     6  H   -0.000050   0.000001   0.000009  -0.000002
     7  H   -0.000745  -0.000085  -0.000008   0.000080
     8  S    0.000015  -0.000001   0.000001   0.000006
     9  N   -0.000070   0.000000   0.000011   0.000000
    10  H   -0.000014  -0.000001   0.000001  -0.000044
    11  C    0.000000   0.000000   0.000000   0.000000
    12  C    0.000000   0.000000   0.000000   0.000000
    13  C    0.000000   0.000000   0.000000   0.000000
    14  C    0.000000   0.000000   0.000000   0.000000
    15  H    0.000000   0.000000   0.000000   0.000000
    16  C    0.000000   0.000000   0.000000   0.000000
    17  H    0.000000   0.000000   0.000000   0.000000
    18  C    0.000000   0.000000   0.000000   0.000000
    19  H    0.000000   0.000000   0.000000   0.000000
    20  H    0.000000   0.000000   0.000000   0.000000
    21  H    0.000000   0.000000   0.000000   0.000000
    22  C   -0.050657   0.002448   0.000268  -0.001663
    23  O   -0.011968   0.000932   0.000512   0.026089
    24  O    0.298511  -0.017427  -0.024554  -0.031568
    25  C    4.454521   0.398343   0.406572   0.390715
    26  H    0.398343   0.620521  -0.031564  -0.025470
    27  H    0.406572  -0.031564   0.617052  -0.029180
    28  H    0.390715  -0.025470  -0.029180   0.605703
 Mulliken charges:
               1
     1  C    0.034875
     2  C    0.039662
     3  C   -0.027829
     4  H    0.022221
     5  H    0.033689
     6  H    0.051749
     7  H    0.039355
     8  S   -0.024100
     9  N   -0.158680
    10  H    0.101431
    11  C   -0.074045
    12  C    0.018834
    13  C    0.029651
    14  C    0.012525
    15  H   -0.015081
    16  C    0.014182
    17  H   -0.018716
    18  C    0.011955
    19  H   -0.002302
    20  H   -0.002546
    21  H   -0.004642
    22  C    0.266032
    23  O   -0.364867
    24  O   -0.267902
    25  C    0.108292
    26  H    0.052526
    27  H    0.061046
    28  H    0.062685
 Sum of Mulliken charges =   0.00000
 Mulliken charges with hydrogens summed into heavy atoms:
               1
     1  C    0.057096
     2  C    0.125100
     3  C    0.011526
     8  S   -0.024100
     9  N   -0.057250
    11  C   -0.074045
    12  C    0.003753
    13  C    0.010936
    14  C    0.010223
    16  C    0.011636
    18  C    0.007313
    22  C    0.266032
    23  O   -0.364867
    24  O   -0.267902
    25  C    0.284549
 Electronic spatial extent (au):  <R**2>=           4611.0322
 Charge=              0.0000 electrons
 Dipole moment (field-independent basis, Debye):
    X=             -1.7133    Y=              0.7860    Z=             -0.9715  Tot=              2.1206
 Quadrupole moment (field-independent basis, Debye-Ang):
   XX=            -72.5903   YY=            -98.5739   ZZ=            -93.7368
   XY=             -5.1183   XZ=              5.0849   YZ=              6.3957
 Traceless Quadrupole moment (field-independent basis, Debye-Ang):
   XX=             15.7100   YY=            -10.2735   ZZ=             -5.4365
   XY=             -5.1183   XZ=              5.0849   YZ=              6.3957
 Octapole moment (field-independent basis, Debye-Ang**2):
  XXX=           -120.5226  YYY=             -2.5749  ZZZ=             -1.8784  XYY=            -16.2948
  XXY=            -20.7603  XXZ=              4.5867  XZZ=             -1.1001  YZZ=              1.7094
  YYZ=             -2.2552  XYZ=              2.0808
 Hexadecapole moment (field-independent basis, Debye-Ang**3):
 XXXX=          -4122.5937 YYYY=           -638.7974 ZZZZ=           -384.5653 XXXY=             19.3010
 XXXZ=             43.3939 YYYX=             -0.9518 YYYZ=             13.2116 ZZZX=              9.1106
 ZZZY=             10.4835 XXYY=           -927.8154 XXZZ=           -923.5960 YYZZ=           -170.5691
 XXYZ=             56.6820 YYXZ=              1.4602 ZZXY=             -1.7779
 N-N= 1.105696687554D+03 E-N=-4.631493797524D+03  KE= 1.027195096469D+03
 No NMR shielding tensors so no spin-rotation constants.
 Leave Link  601 at Fri Sep  5 00:09:21 2014, MaxMem=  2147483648 cpu:         3.3
 (Enter /home/ik1r11/g09/l701.exe)
 Compute integral first derivatives.
 ... and contract with generalized density number  0.
 Leave Link  701 at Fri Sep  5 00:09:21 2014, MaxMem=  2147483648 cpu:         3.9
 (Enter /home/ik1r11/g09/l702.exe)
 L702 exits ... SP integral derivatives will be done elsewhere.
 Leave Link  702 at Fri Sep  5 00:09:21 2014, MaxMem=  2147483648 cpu:         0.2
 (Enter /home/ik1r11/g09/l703.exe)
 Compute integral first derivatives, UseDBF=F ICtDFT=           0.
 Integral derivatives from FoFJK, PRISM(SPDF).
 Calling FoFJK, ICntrl=      2127 FMM=F ISym2X=0 I1Cent= 0 IOpClX= 0 NMat=1 NMatS=1 NMatT=0.
 FoFJK:  IHMeth= 1 ICntrl=    2127 DoSepK=F KAlg= 0 I1Cent=   0 FoldK=F
 IRaf=         0 NMat=   1 IRICut=       1 DoRegI=T DoRafI=F ISym2E= 0.
 FoFCou: FMM=F IPFlag=           0 FMFlag=      100000 FMFlg1=         800
         NFxFlg=           0 DoJE=F BraDBF=F KetDBF=F FulRan=T
         wScrn=  0.000000 ICntrl=    2127 IOpCl=  0 I1Cent=           0 NGrid=           0
         NMat0=    1 NMatS0=      1 NMatT0=    0 NMatD0=    1 NMtDS0=    0 NMtDT0=    0
 Symmetry not used in FoFCou.
 Leave Link  703 at Fri Sep  5 00:09:28 2014, MaxMem=  2147483648 cpu:       101.8
 (Enter /home/ik1r11/g09/l716.exe)
 Dipole        =-6.74059557D-01 3.09223849D-01-3.82232302D-01
 ***** Axes restored to original set *****
 -------------------------------------------------------------------
 Center     Atomic                   Forces (Hartrees/Bohr)
 Number     Number              X              Y              Z
 -------------------------------------------------------------------
      1        6           0.111702417   -0.263279736    0.131928851
      2        6          -0.332346197   -0.030221707   -0.007516245
      3        6          -0.059598095   -0.005558163    0.031027154
      4        1           0.014248759   -0.032638681   -0.010888298
      5        1          -0.033103406    0.007361013    0.019180358
      6        1          -0.017100335    0.010021260   -0.015710621
      7        1           0.007817407   -0.008204552   -0.020523835
      8       16           0.273595027    0.375566627   -0.129858240
      9        7           0.011007217   -0.057590459   -0.028020431
     10        1          -0.005946113    0.009837941    0.015665942
     11        6           0.000182881   -0.008357799   -0.000939513
     12        6           0.005992009    0.019603244    0.016907384
     13        6           0.020683961   -0.019017217    0.006332600
     14        6          -0.017358544    0.017741133   -0.000586473
     15        1          -0.003332636   -0.013367465   -0.010626747
     16        6          -0.003172047   -0.021935449   -0.014068776
     17        1          -0.010146840    0.012196890   -0.001144868
     18        6          -0.019003820   -0.000633595   -0.013942820
     19        1           0.011117137   -0.012332560    0.000000949
     20        1           0.001856585    0.013281654    0.009706897
     21        1           0.013573767    0.001058316    0.009704352
     22        6          -0.017823031   -0.020362557    0.137801702
     23        8           0.036281467    0.020277983   -0.096219165
     24        8           0.004189455    0.006162706   -0.036834786
     25        6           0.017056811    0.007047980    0.006527411
     26        1          -0.005750335    0.008817917   -0.017254826
     27        1          -0.000153290   -0.020806483    0.000623506
     28        1          -0.004470212    0.005331758    0.018728536
 -------------------------------------------------------------------
 Cartesian Forces:  Max     0.375566627 RMS     0.076782576
 Leave Link  716 at Fri Sep  5 00:09:28 2014, MaxMem=  2147483648 cpu:         0.3
 (Enter /home/ik1r11/g09/l103.exe)

 GradGradGradGradGradGradGradGradGradGradGradGradGradGradGradGradGradGrad
 Berny optimization.
 FormGI is forming the generalized inverse of G from B-inverse, IUseBI=4.
 Internal  Forces:  Max     0.358008568 RMS     0.044963153
 Search for a local minimum.
 Step number   1 out of a maximum of  157
 All quantities printed in internal units (Hartrees-Bohrs-Radians)
 RMS Force = .44963D-01 SwitMx=.10000D-02 MixMth= 1
 Mixed Optimization -- RFO/linear search
 Second derivative matrix not updated -- first step.
 ITU=  0
     Eigenvalues ---    0.00237   0.00237   0.00927   0.01295   0.01337
     Eigenvalues ---    0.01338   0.02070   0.02070   0.02070   0.02070
     Eigenvalues ---    0.02070   0.02070   0.02070   0.02070   0.02172
     Eigenvalues ---    0.02997   0.03830   0.04969   0.04998   0.05250
     Eigenvalues ---    0.05970   0.06106   0.06519   0.07563   0.07755
     Eigenvalues ---    0.09538   0.10344   0.10344   0.11333   0.12164
     Eigenvalues ---    0.13500   0.16000   0.16000   0.16000   0.16000
     Eigenvalues ---    0.16000   0.16000   0.16000   0.16000   0.16785
     Eigenvalues ---    0.20214   0.20429   0.22000   0.22000   0.23485
     Eigenvalues ---    0.25000   0.25000   0.25000   0.25000   0.28519
     Eigenvalues ---    0.28519   0.29422   0.33573   0.36476   0.37230
     Eigenvalues ---    0.37230   0.37230   0.37230   0.37230   0.37230
     Eigenvalues ---    0.37230   0.37230   0.37230   0.37230   0.37230
     Eigenvalues ---    0.37230   0.40989   0.41268   0.41459   0.45389
     Eigenvalues ---    0.45389   0.45389   0.45389   0.47688   0.66833
     Eigenvalues ---    0.66833   0.81810   0.89558
 RFO step:  Lambda=-2.77832126D-01 EMin= 2.36824068D-03
 Linear search not attempted -- first point.
 Maximum step size (   0.300) exceeded in Quadratic search.
    -- Step size scaled by   0.590
 Iteration  1 RMS(Cart)=  0.06263298 RMS(Int)=  0.00086809
 Iteration  2 RMS(Cart)=  0.00178193 RMS(Int)=  0.00024853
 Iteration  3 RMS(Cart)=  0.00000149 RMS(Int)=  0.00024853
 Iteration  4 RMS(Cart)=  0.00000000 RMS(Int)=  0.00024853
 ITry= 1 IFail=0 DXMaxC= 2.43D-01 DCOld= 1.00D+10 DXMaxT= 3.00D-01 DXLimC= 3.00D+00 Rises=F
 Variable       Old X    -DE/DX   Delta X   Delta X   Delta X     New X
                                 (Linear)    (Quad)   (Total)
    R1        2.02201   0.02966   0.00000   0.02692   0.02692   2.04893
    R2        2.77229   0.34036   0.00000   0.18428   0.18484   2.95713
    R3        2.77398   0.03652   0.00000   0.02225   0.02182   2.79581
    R4        2.91018   0.00044   0.00000   0.00046   0.00046   2.91064
    R5        2.85514   0.04773   0.00000   0.03420   0.03385   2.88899
    R6        2.02201   0.03073   0.00000   0.02790   0.02790   2.04990
    R7        2.02201   0.02437   0.00000   0.02212   0.02212   2.04413
    R8        2.73809   0.35801   0.00000   0.18130   0.18195   2.92004
    R9        2.02201   0.02329   0.00000   0.02115   0.02115   2.04315
   R10        2.73253   0.03867   0.00000   0.01612   0.01563   2.74816
   R11        2.91018  -0.02647   0.00000  -0.02775  -0.02775   2.88243
   R12        1.88973   0.01919   0.00000   0.01501   0.01501   1.90473
   R13        2.64826  -0.00614   0.00000  -0.00493  -0.00493   2.64334
   R14        2.64826  -0.00505   0.00000  -0.00401  -0.00401   2.64425
   R15        2.64826  -0.00872   0.00000  -0.00706  -0.00706   2.64120
   R16        2.02201   0.01736   0.00000   0.01576   0.01576   2.03776
   R17        2.64826  -0.00732   0.00000  -0.00587  -0.00587   2.64239
   R18        2.02201   0.01586   0.00000   0.01440   0.01440   2.03641
   R19        2.64826  -0.00851   0.00000  -0.00693  -0.00693   2.64134
   R20        2.02201   0.01661   0.00000   0.01508   0.01508   2.03708
   R21        2.64826  -0.00882   0.00000  -0.00714  -0.00714   2.64112
   R22        2.02201   0.01655   0.00000   0.01502   0.01502   2.03703
   R23        2.02201   0.01671   0.00000   0.01517   0.01517   2.03718
   R24        2.45910  -0.10440   0.00000  -0.06513  -0.06513   2.39397
   R25        2.45910   0.01283   0.00000   0.00800   0.00800   2.46710
   R26        2.70231  -0.00456   0.00000  -0.00392  -0.00392   2.69839
   R27        2.02201   0.01879   0.00000   0.01705   0.01705   2.03906
   R28        2.02201   0.02075   0.00000   0.01884   0.01884   2.04085
   R29        2.02201   0.01990   0.00000   0.01806   0.01806   2.04007
    A1        1.89502  -0.00034   0.00000   0.00526   0.00547   1.90049
    A2        1.87718  -0.00925   0.00000  -0.01230  -0.01234   1.86484
    A3        1.90343  -0.00783   0.00000  -0.01426  -0.01458   1.88885
    A4        1.85476   0.00076   0.00000   0.00508   0.00493   1.85969
    A5        1.95610   0.02087   0.00000   0.02689   0.02692   1.98303
    A6        1.97413  -0.00497   0.00000  -0.01107  -0.01137   1.96276
    A7        1.88687  -0.01327   0.00000  -0.01649  -0.01642   1.87045
    A8        1.98896  -0.00061   0.00000  -0.00269  -0.00275   1.98621
    A9        1.81035   0.00400   0.00000   0.00173   0.00147   1.81182
   A10        1.89684  -0.00319   0.00000  -0.00733  -0.00754   1.88930
   A11        1.90061   0.00272   0.00000   0.01372   0.01402   1.91463
   A12        1.97615   0.00979   0.00000   0.01114   0.01103   1.98718
   A13        1.94915   0.00285   0.00000  -0.00574  -0.00594   1.94321
   A14        1.71872   0.05115   0.00000   0.03534   0.03479   1.75351
   A15        1.98186  -0.03721   0.00000  -0.01607  -0.01531   1.96655
   A16        1.93104  -0.02079   0.00000  -0.01602  -0.01570   1.91533
   A17        1.87995   0.01607   0.00000   0.01231   0.01205   1.89200
   A18        2.00132  -0.01190   0.00000  -0.01032  -0.01025   1.99107
   A19        1.79393  -0.10300   0.00000  -0.05194  -0.05053   1.74339
   A20        1.68614   0.06550   0.00000   0.03505   0.03424   1.72038
   A21        1.97574  -0.00217   0.00000  -0.00634  -0.00642   1.96932
   A22        1.95811  -0.02786   0.00000  -0.01892  -0.01856   1.93955
   A23        2.09440  -0.00870   0.00000  -0.00976  -0.00977   2.08463
   A24        2.09440   0.01319   0.00000   0.01471   0.01471   2.10911
   A25        2.09440  -0.00450   0.00000  -0.00495  -0.00495   2.08945
   A26        2.09440   0.00312   0.00000   0.00365   0.00365   2.09804
   A27        2.09440  -0.00286   0.00000  -0.00358  -0.00358   2.09081
   A28        2.09440  -0.00025   0.00000  -0.00007  -0.00007   2.09433
   A29        2.09440   0.00102   0.00000   0.00130   0.00130   2.09569
   A30        2.09440  -0.00070   0.00000  -0.00090  -0.00090   2.09350
   A31        2.09440  -0.00032   0.00000  -0.00040  -0.00040   2.09400
   A32        2.09440   0.00013   0.00000  -0.00003  -0.00003   2.09436
   A33        2.09440  -0.00022   0.00000  -0.00019  -0.00019   2.09420
   A34        2.09440   0.00009   0.00000   0.00022   0.00022   2.09462
   A35        2.09440   0.00143   0.00000   0.00165   0.00165   2.09604
   A36        2.09440  -0.00097   0.00000  -0.00116  -0.00116   2.09323
   A37        2.09440  -0.00047   0.00000  -0.00049  -0.00048   2.09391
   A38        2.09440  -0.00120   0.00000  -0.00161  -0.00161   2.09279
   A39        2.09440   0.00051   0.00000   0.00068   0.00068   2.09508
   A40        2.09440   0.00069   0.00000   0.00093   0.00093   2.09532
   A41        2.09440   0.00366   0.00000   0.00409   0.00409   2.09849
   A42        2.09440  -0.02916   0.00000  -0.03260  -0.03261   2.06179
   A43        2.09440   0.02550   0.00000   0.02851   0.02851   2.12290
   A44        2.09440  -0.01451   0.00000  -0.01623  -0.01623   2.07817
   A45        1.91063  -0.01050   0.00000  -0.01424  -0.01425   1.89639
   A46        1.91063  -0.00071   0.00000  -0.00105  -0.00107   1.90957
   A47        1.91063   0.00280   0.00000   0.00395   0.00395   1.91458
   A48        1.91063   0.00338   0.00000   0.00420   0.00417   1.91480
   A49        1.91063   0.00499   0.00000   0.00691   0.00692   1.91755
   A50        1.91063   0.00005   0.00000   0.00023   0.00023   1.91086
    D1        1.71099   0.00671   0.00000   0.00603   0.00575   1.71674
    D2       -0.30380   0.01721   0.00000   0.01516   0.01491  -0.28889
    D3       -2.46848   0.00984   0.00000   0.00866   0.00846  -2.46003
    D4       -1.22352  -0.00904   0.00000  -0.02174  -0.02170  -1.24522
    D5        3.00710  -0.01203   0.00000  -0.01691  -0.01677   2.99033
    D6        0.80332  -0.01350   0.00000  -0.01906  -0.01892   0.78441
    D7       -1.24924  -0.01649   0.00000  -0.01423  -0.01398  -1.26323
    D8        2.95675   0.01013   0.00000   0.01133   0.01121   2.96796
    D9        0.90418   0.00714   0.00000   0.01616   0.01614   0.92033
   D10       -0.51996   0.00923   0.00000   0.01547   0.01534  -0.50462
   D11        2.62163   0.01047   0.00000   0.01798   0.01786   2.63949
   D12       -2.61879   0.00163   0.00000   0.00133   0.00122  -2.61756
   D13        0.52281   0.00287   0.00000   0.00384   0.00373   0.52654
   D14        1.56795  -0.01100   0.00000  -0.01694  -0.01671   1.55124
   D15       -1.57365  -0.00976   0.00000  -0.01443  -0.01420  -1.58784
   D16        3.04337  -0.01599   0.00000  -0.02106  -0.02086   3.02251
   D17       -1.21036  -0.01212   0.00000  -0.02307  -0.02288  -1.23324
   D18        0.91346  -0.01176   0.00000  -0.02100  -0.02099   0.89247
   D19        0.93263  -0.00206   0.00000   0.00177   0.00183   0.93446
   D20        2.96209   0.00181   0.00000  -0.00023  -0.00019   2.96190
   D21       -1.19728   0.00217   0.00000   0.00183   0.00170  -1.19558
   D22       -1.22382  -0.01665   0.00000  -0.01169  -0.01128  -1.23510
   D23        0.80564  -0.01278   0.00000  -0.01369  -0.01330   0.79234
   D24        2.92945  -0.01242   0.00000  -0.01163  -0.01141   2.91804
   D25       -0.29979   0.00897   0.00000   0.00755   0.00741  -0.29238
   D26        1.70644  -0.00303   0.00000  -0.00453  -0.00460   1.70184
   D27       -2.46460   0.00127   0.00000   0.00318   0.00328  -2.46132
   D28       -0.94748  -0.03757   0.00000  -0.00732  -0.00614  -0.95363
   D29        1.11895  -0.01537   0.00000  -0.00274  -0.00231   1.11664
[...]
     7  H    0.672854  -0.007128  -0.033024   0.009125   0.001078  -0.000018
     8  S   -0.007128  15.845843  -0.088630   0.000000  -0.053435   0.003664
     9  N   -0.033024  -0.088630   6.310233   0.356234  -0.034404  -0.000809
    10  H    0.009125   0.000000   0.356234   0.585725  -0.008273   0.000462
    11  C    0.001078  -0.053435  -0.034404  -0.008273   4.972666   0.494479
    12  C   -0.000018   0.003664  -0.000809   0.000462   0.494479   4.824149
    13  C    0.000046  -0.017767  -0.001634   0.009179   0.435600  -0.019851
    14  C    0.000000  -0.000251  -0.000063  -0.000065   0.004555   0.498739
    15  H    0.000004   0.000153   0.000257   0.000070  -0.045156   0.386518
    16  C    0.000001  -0.001135   0.000348  -0.000507   0.007225  -0.074039
    17  H    0.000041   0.011668   0.001186   0.005833  -0.063635   0.011346
    18  C    0.000000   0.000074   0.000018  -0.000012  -0.073941  -0.005455
    19  H    0.000000   0.000004   0.000001   0.000003   0.009649  -0.043109
    20  H    0.000000  -0.000016   0.000001   0.000023   0.009024   0.000263
    21  H    0.000000   0.000001   0.000000   0.000000   0.000056   0.009425
    22  C   -0.020766   0.003741  -0.031576  -0.012807  -0.000177   0.000002
    23  O    0.002859  -0.000112  -0.004399   0.024927   0.000052   0.000000
    24  O    0.005636   0.000032   0.000862   0.000906   0.000001   0.000000
    25  C   -0.000250   0.000010  -0.000111  -0.000088   0.000000   0.000000
    26  H   -0.000108   0.000000   0.000002  -0.000001   0.000000   0.000000
    27  H   -0.000067   0.000001   0.000033  -0.000017   0.000000   0.000000
    28  H    0.000113  -0.000003  -0.000009  -0.000020   0.000000   0.000000
              13         14         15         16         17         18
     1  C   -0.106222   0.007502  -0.018644   0.007408  -0.016909   0.000378
     2  C   -0.000259   0.000003  -0.000011  -0.000005  -0.000748   0.000000
     3  C    0.000289   0.000009  -0.000074   0.000026  -0.000540   0.000000
     4  H    0.011888   0.000444   0.007352  -0.000235   0.001034  -0.000036
     5  H    0.000004   0.000000  -0.000001   0.000001  -0.000254   0.000000
     6  H    0.000016   0.000000   0.000000   0.000001   0.000093   0.000000
     7  H    0.000046   0.000000   0.000004   0.000001   0.000041   0.000000
     8  S   -0.017767  -0.000251   0.000153  -0.001135   0.011668   0.000074
     9  N   -0.001634  -0.000063   0.000257   0.000348   0.001186   0.000018
    10  H    0.009179  -0.000065   0.000070  -0.000507   0.005833  -0.000012
    11  C    0.435600   0.004555  -0.045156   0.007225  -0.063635  -0.073941
    12  C   -0.019851   0.498739   0.386518  -0.074039   0.011346  -0.005455
    13  C    4.885992  -0.073295   0.012216   0.495126   0.389151  -0.007588
    14  C   -0.073295   4.746137  -0.044734   0.004396  -0.000530   0.498908
    15  H    0.012216  -0.044734   0.713010  -0.000702  -0.000201   0.009803
    16  C    0.495126   0.004396  -0.000702   4.752501  -0.039234   0.491567
    17  H    0.389151  -0.000530  -0.000201  -0.039234   0.718483   0.010095
    18  C   -0.007588   0.498908   0.009803   0.491567   0.010095   4.783794
    19  H    0.000278   0.390190  -0.014778   0.008959   0.000073  -0.050815
    20  H   -0.042262   0.009018   0.000072   0.390289  -0.015027  -0.050760
    21  H    0.009746  -0.048919  -0.000255  -0.048510  -0.000259   0.393816
    22  C   -0.000083   0.000000   0.000000  -0.000002  -0.000108   0.000000
    23  O   -0.000087   0.000000   0.000000  -0.000001  -0.000032   0.000000
    24  O    0.000000   0.000000   0.000000   0.000000   0.000000   0.000000
    25  C    0.000000   0.000000   0.000000   0.000000   0.000000   0.000000
    26  H    0.000000   0.000000   0.000000   0.000000   0.000000   0.000000
    27  H    0.000000   0.000000   0.000000   0.000000   0.000000   0.000000
    28  H    0.000000   0.000000   0.000000   0.000000   0.000000   0.000000
              19         20         21         22         23         24
     1  C   -0.000334  -0.000357   0.000037   0.005621   0.000006  -0.000065
     2  C    0.000000   0.000000   0.000000  -0.036289  -0.004250   0.002277
     3  C    0.000000   0.000000   0.000000   0.299381  -0.073041  -0.063442
     4  H    0.000000   0.000010  -0.000001  -0.000277  -0.000021  -0.000004
     5  H    0.000000   0.000000   0.000000  -0.000887   0.003799  -0.000784
     6  H    0.000000   0.000000   0.000000  -0.000928   0.000048   0.002421
     7  H    0.000000   0.000000   0.000000  -0.020766   0.002859   0.005636
     8  S    0.000004  -0.000016   0.000001   0.003741  -0.000112   0.000032
     9  N    0.000001   0.000001   0.000000  -0.031576  -0.004399   0.000862
    10  H    0.000003   0.000023   0.000000  -0.012807   0.024927   0.000906
    11  C    0.009649   0.009024   0.000056  -0.000177   0.000052   0.000001
    12  C   -0.043109   0.000263   0.009425   0.000002   0.000000   0.000000
    13  C    0.000278  -0.042262   0.009746  -0.000083  -0.000087   0.000000
    14  C    0.390190   0.009018  -0.048919   0.000000   0.000000   0.000000
    15  H   -0.014778   0.000072  -0.000255   0.000000   0.000000   0.000000
    16  C    0.008959   0.390289  -0.048510  -0.000002  -0.000001   0.000000
    17  H    0.000073  -0.015027  -0.000259  -0.000108  -0.000032   0.000000
    18  C   -0.050815  -0.050760   0.393816   0.000000   0.000000   0.000000
    19  H    0.708446  -0.000278  -0.014729   0.000000   0.000000   0.000000
    20  H   -0.000278   0.706758  -0.014591   0.000000   0.000000   0.000000
    21  H   -0.014729  -0.014591   0.708368   0.000000   0.000000   0.000000
    22  C    0.000000   0.000000   0.000000   4.484066   0.719972   0.380193
    23  O    0.000000   0.000000   0.000000   0.719972   7.650316  -0.062926
    24  O    0.000000   0.000000   0.000000   0.380193  -0.062926   7.805019
    25  C    0.000000   0.000000   0.000000  -0.050379  -0.000381   0.296381
    26  H    0.000000   0.000000   0.000000   0.003781   0.000839  -0.018403
    27  H    0.000000   0.000000   0.000000  -0.002802   0.006088  -0.028222
    28  H    0.000000   0.000000   0.000000  -0.001946   0.006791  -0.028749
              25         26         27         28
     1  C    0.000010  -0.000001   0.000002   0.000000
     2  C   -0.000420   0.000008   0.000021  -0.000180
     3  C    0.010340  -0.000394   0.000468   0.001468
     4  H    0.000001   0.000000   0.000000   0.000000
     5  H   -0.000135  -0.000010  -0.000030   0.000162
     6  H   -0.000045  -0.000001   0.000020  -0.000003
     7  H   -0.000250  -0.000108  -0.000067   0.000113
     8  S    0.000010   0.000000   0.000001  -0.000003
     9  N   -0.000111   0.000002   0.000033  -0.000009
    10  H   -0.000088  -0.000001  -0.000017  -0.000020
    11  C    0.000000   0.000000   0.000000   0.000000
    12  C    0.000000   0.000000   0.000000   0.000000
    13  C    0.000000   0.000000   0.000000   0.000000
    14  C    0.000000   0.000000   0.000000   0.000000
    15  H    0.000000   0.000000   0.000000   0.000000
    16  C    0.000000   0.000000   0.000000   0.000000
    17  H    0.000000   0.000000   0.000000   0.000000
    18  C    0.000000   0.000000   0.000000   0.000000
    19  H    0.000000   0.000000   0.000000   0.000000
    20  H    0.000000   0.000000   0.000000   0.000000
    21  H    0.000000   0.000000   0.000000   0.000000
    22  C   -0.050379   0.003781  -0.002802  -0.001946
    23  O   -0.000381   0.000839   0.006088   0.006791
    24  O    0.296381  -0.018403  -0.028222  -0.028749
    25  C    4.481001   0.394607   0.397123   0.393773
    26  H    0.394607   0.617401  -0.028364  -0.029018
    27  H    0.397123  -0.028364   0.627643  -0.035091
    28  H    0.393773  -0.029018  -0.035091   0.632737
 Mulliken charges:
               1
     1  C   -0.042973
     2  C   -0.091800
     3  C   -0.004068
     4  H    0.057046
     5  H    0.068072
     6  H    0.078642
     7  H    0.052802
     8  S   -0.068834
     9  N   -0.149630
    10  H    0.108302
    11  C    0.001763
    12  C   -0.009225
    13  C    0.019519
    14  C    0.007957
    15  H   -0.004899
    16  C    0.006520
    17  H   -0.011525
    18  C    0.000154
    19  H    0.006442
    20  H    0.007835
    21  H    0.005817
    22  C    0.262271
    23  O   -0.270447
    24  O   -0.291132
    25  C    0.078563
    26  H    0.059662
    27  H    0.063194
    28  H    0.059974
 Sum of Mulliken charges =   0.00000
 Mulliken charges with hydrogens summed into heavy atoms:
               1
     1  C    0.014072
     2  C    0.054913
     3  C    0.048734
     8  S   -0.068834
     9  N   -0.041329
    11  C    0.001763
    12  C   -0.014124
    13  C    0.007993
    14  C    0.014399
    16  C    0.014356
    18  C    0.005971
    22  C    0.262271
    23  O   -0.270447
    24  O   -0.291132
    25  C    0.261392
 Electronic spatial extent (au):  <R**2>=           4543.6478
 Charge=              0.0000 electrons
 Dipole moment (field-independent basis, Debye):
    X=             -1.6523    Y=             -0.3361    Z=             -0.3612  Tot=              1.7244
 Quadrupole moment (field-independent basis, Debye-Ang):
   XX=            -73.4411   YY=           -103.0840   ZZ=            -91.4022
   XY=             -3.4609   XZ=             -1.4280   YZ=             -2.3291
 Traceless Quadrupole moment (field-independent basis, Debye-Ang):
   XX=             15.8680   YY=            -13.7749   ZZ=             -2.0931
   XY=             -3.4609   XZ=             -1.4280   YZ=             -2.3291
 Octapole moment (field-independent basis, Debye-Ang**2):
  XXX=            -93.7953  YYY=             -8.5565  ZZZ=             -0.8429  XYY=            -16.8815
  XXY=            -31.4405  XXZ=             -3.6058  XZZ=             -3.8568  YZZ=             -2.4763
  YYZ=             -1.9801  XYZ=            -12.4331
 Hexadecapole moment (field-independent basis, Debye-Ang**3):
 XXXX=          -4023.6041 YYYY=           -865.7493 ZZZZ=           -429.8835 XXXY=             40.4399
 XXXZ=            -30.2384 YYYX=             15.2405 YYYZ=              4.5416 ZZZX=             -5.2013
 ZZZY=            -18.5928 XXYY=           -922.0167 XXZZ=           -829.2689 YYZZ=           -211.7616
 XXYZ=             -8.3811 YYXZ=             15.3031 ZZXY=             -1.3318
 N-N= 1.077339254755D+03 E-N=-4.573412878581D+03  KE= 1.025067208927D+03
 Calculating spin-rotation constants.
 Leave Link  601 at Fri Sep  5 02:26:40 2014, MaxMem=  2147483648 cpu:        26.9
 (Enter /home/ik1r11/g09/l9999.exe)

 Test job not archived.
 1\1\GINC-GREEN0625\SP\RM06\Gen\C11H13N1O2S1\IK1R11\05-Sep-2014\0\\#P G
 eom=AllCheck Guess=TCheck SCRF=Check GenChk RM06/ChkBas NMR=ReadFC IOp
 (3/6=22)\\Cis-isomer of dimethyloxazolidine\\0,1\C,0,1.2555064219,0.22
 74638515,-0.1864440319\C,0,-0.9951616924,1.527163006,-0.793894876\C,0,
 -1.0510961711,0.0031659914,-0.5425229065\H,0,1.635119406,-0.3481524292
 ,-1.0478618526\H,0,-1.4522238766,2.067401162,0.0546703286\H,0,-1.52480
 08377,1.8065158137,-1.7174239431\H,0,-0.9818835111,-0.5183869912,-1.51
 33289993\S,0,0.7764050484,1.9323180447,-0.9185566766\N,0,0.0527108179,
 -0.3763942702,0.301608871\H,0,-0.148402162,-0.0875589173,1.2631585781\
 C,0,2.321886193,0.3416238036,0.8623971299\C,0,3.5004097783,-0.39565547
 07,0.7483734465\C,0,2.1378328757,1.1577271744,1.9830442183\C,0,4.47894
 8218,-0.3260798102,1.7379352837\H,0,3.6499831008,-1.0352087884,-0.1271
 164703\C,0,3.1085284278,1.2224036646,2.975193307\H,0,1.2313550499,1.76
 73993801,2.0587561482\C,0,4.2832598502,0.4803093871,2.8545920859\H,0,5
 .3987161908,-0.9075531938,1.6347850658\H,0,2.9536547454,1.8646733572,3
 .8460027332\H,0,5.0496683078,0.5371571816,3.6318478656\C,0,-2.35811686
 82,-0.3329462286,0.1281644414\O,0,-2.5106944105,-0.4224808669,1.320772
 6428\O,0,-3.3425134898,-0.4422521,-0.7720307588\C,0,-4.6384410312,-0.6
 71496933,-0.2242798228\H,0,-5.3251492557,-0.7238066526,-1.0766296471\H
 ,0,-4.660008448,-1.6141480594,0.3425575423\H,0,-4.9273188476,0.1475268
 537,0.4513784965\\Version=EM64L-G09RevD.01\State=1-A\HF=-1029.9751389\
 RMSD=5.787e-09\Dipole=-0.6095546,-0.2514613,-0.159684\Quadrupole=9.792
 6135,-6.0869817,-3.7056318,-2.046615,6.1010319,4.3863339\PG=C01 [X(C11
 H13N1O2S1)]\\@
 DoSRE=F DoSRN=T DoDH=F DoFC=F DoNQ=T DoQCD=F DoSCD=F
 Inertia tensor (amu-bohr**2): 
                 1             2             3 
      1   0.202644D+04 -0.617532D+03 -0.162018D+04
      2  -0.617532D+03  0.721955D+04  0.895202D+02
      3  -0.162018D+04  0.895202D+02  0.656496D+04
 Principal inertia moments (amu-bohr**2):
 Iaa = 0.145276D+04 Ibb= 0.689065D+04 Icc= 0.746754D+04
 Rotation matrix to Principal Axis frame: 
                 1             2             3 
      1  -0.949264D+00  0.191573D+00  0.249396D+00
      2  -0.970074D-01  0.575991D+00 -0.811680D+00
      3  -0.299145D+00 -0.794692D+00 -0.528183D+00
                Principal axis orientation:                
 ---------------------------------------------------------------------
 Center     Atomic                     Coordinates (Angstroms)
 Number     Number                        X           Y           Z
 ---------------------------------------------------------------------
      1          6                   -0.649968    0.612817    0.698800
      2          6                    1.542146    1.413002   -0.596602
      3          6                    1.667885    0.324715    0.493676
      4          1                   -0.696792    1.038553    1.715676
      5          1                    1.669767    0.962265   -1.597290
      6          1                    2.294083    2.206363   -0.467644
      7          1                    1.943190    0.809056    1.447034
      8         16                   -0.141549    2.084818   -0.417793
      9          7                    0.404383   -0.353274    0.631186
     10          1                    0.279630   -0.989570   -0.161287
     11          6                   -1.987073    0.049356    0.318109
     12          6                   -3.000172   -0.058923    1.270688
     13          6                   -2.226763   -0.406405   -0.982115
     14          6                   -4.231835   -0.617784    0.935589
     15          1                   -2.818216    0.297098    2.289523
     16          6                   -3.451280   -0.971645   -1.316560
     17          1                   -1.448068   -0.289063   -1.743035
     18          6                   -4.458344   -1.078198   -0.357544
     19          1                   -5.017673   -0.694532    1.691427
     20          1                   -3.627067   -1.323399   -2.336449
     21          1                   -5.423894   -1.516310   -0.623081
     22          6                    2.740564   -0.652261    0.086280
     23          8                    2.537323   -1.680818   -0.509014
     24          8                    3.954909   -0.188426    0.404965
     25          6                    5.043467   -1.004026   -0.021473
     26          1                    5.955385   -0.488356    0.299920
     27          1                    4.985818   -2.001577    0.438885
     28          1                    5.036117   -1.124558   -1.115175
 ---------------------------------------------------------------------
 Rotational constants (MHZ):
   1242.2817064    261.9116896    241.6780564
 nuclear spin - molecular rotation tensor [C] (MHz):
  4  H1    
   aa=    -0.0001   ba=     0.0000   ca=     0.0000
   ab=     0.0000   bb=     0.0000   cb=     0.0000
   ac=     0.0000   bc=     0.0000   cc=     0.0000
  5  H1    
   aa=    -0.0001   ba=     0.0000   ca=     0.0000
   ab=     0.0000   bb=     0.0000   cb=     0.0000
   ac=     0.0000   bc=     0.0000   cc=     0.0000
  6  H1    
   aa=     0.0000   ba=     0.0001   ca=     0.0000
   ab=     0.0000   bb=     0.0000   cb=     0.0000
   ac=     0.0000   bc=     0.0000   cc=     0.0000
  7  H1    
   aa=    -0.0001   ba=     0.0000   ca=     0.0000
   ab=     0.0000   bb=     0.0000   cb=     0.0000
   ac=     0.0000   bc=     0.0000   cc=     0.0000
  9  N14   
   aa=     0.0001   ba=     0.0000   ca=     0.0000
   ab=     0.0000   bb=     0.0000   cb=     0.0000
   ac=     0.0000   bc=     0.0000   cc=     0.0000
 10  H1    
   aa=    -0.0001   ba=     0.0000   ca=     0.0000
   ab=     0.0000   bb=     0.0000   cb=     0.0000
   ac=     0.0000   bc=     0.0000   cc=     0.0000
 15  H1    
   aa=    -0.0001   ba=     0.0000   ca=     0.0000
   ab=     0.0000   bb=     0.0000   cb=     0.0000
   ac=     0.0000   bc=     0.0000   cc=     0.0000
 17  H1    
   aa=     0.0000   ba=     0.0000   ca=    -0.0001
   ab=     0.0000   bb=     0.0000   cb=     0.0000
   ac=     0.0000   bc=     0.0000   cc=     0.0000
 19  H1    
   aa=     0.0000   ba=     0.0000   ca=    -0.0001
   ab=     0.0000   bb=     0.0000   cb=     0.0000
   ac=     0.0000   bc=     0.0000   cc=     0.0000
 20  H1    
   aa=    -0.0001   ba=     0.0000   ca=     0.0000
   ab=     0.0000   bb=     0.0000   cb=     0.0000
   ac=     0.0000   bc=     0.0000   cc=     0.0000
 21  H1    
   aa=     0.0001   ba=     0.0001   ca=     0.0001
   ab=     0.0000   bb=     0.0000   cb=     0.0000
   ac=     0.0000   bc=     0.0000   cc=     0.0000
 26  H1    
   aa=     0.0000   ba=     0.0001   ca=     0.0000
   ab=     0.0000   bb=     0.0000   cb=     0.0000
   ac=     0.0000   bc=     0.0000   cc=     0.0000
 27  H1    
   aa=    -0.0001   ba=     0.0000   ca=     0.0000
   ab=     0.0000   bb=     0.0000   cb=     0.0000
   ac=     0.0000   bc=     0.0000   cc=     0.0000
 28  H1    
   aa=    -0.0001   ba=     0.0000   ca=     0.0000
   ab=     0.0000   bb=     0.0000   cb=     0.0000
   ac=     0.0000   bc=     0.0000   cc=     0.0000
 Nuclear quadrupole coupling constants [Chi] (MHz):
  9  N(14) 
   aa=     2.8450   ba=    -0.1366   ca=    -0.0446
   ab=    -0.1366   bb=     0.3730   cb=     3.2026
   ac=    -0.0446   bc=     3.2026   cc=    -3.2180
 Dipole moment (Debye):
      1.6541440     -0.3424081      0.3467657  Tot=      1.7244368

 Atoms with significant hyperfine tensors:  H5-1,H7-1,N9-14,H10-1,H15-1,H17-1,H19
 -1,H20-1,H27-1,H28-1
 The first  8 will be included in Pickett input.
 Atoms in Picket input:  H5-1,H7-1,N9-14,H10-1,H15-1,H17-1,H19-1,H20-1

--------------------------------------------------------------------------------
 Cis-isomer of dimethyloxazolidine                       
   99  1000  50  0.1760E-11  0.1000E+07  0.1000E+01 1.0000000000
a 22222322  1  0  0  0  1  1   1  0  1  0
     10000   0.12422817E+04    0.0000E+00   /  A  /
     20000   0.26191169E+03    0.0000E+00   /  B  /
     30000   0.24167806E+03    0.0000E+00   /  C  /
 330010000   0.42675402E+01    0.0000E+00   /  (9 N-14) 3/2*Chi_aa             /
 330040000   0.89776204E+00    0.0000E+00   /  (9 N-14) 1/4*(Chi_bb-Chi_cc)    /
 330610000  -0.13655668E+00    0.0000E+00   /  (9 N-14) Chi_ab                 /
 330410000  -0.44568940E-01    0.0000E+00   /  (9 N-14) Chi_ac                 /
 330210000   0.32025829E+01    0.0000E+00   /  (9 N-14) Chi_bc                 /
  10010000  -0.13889867E-03    0.0000E+00   /  (5 H-1) C_aa                    /
  20010000  -0.12164909E-03    0.0000E+00   /  (7 H-1) C_aa                    /
  40010000  -0.12683998E-03    0.0000E+00   /  (10 H-1) C_aa                   /
  50010000  -0.11877847E-03    0.0000E+00   /  (15 H-1) C_aa                   /
  80010000  -0.12273484E-03    0.0000E+00   /  (20 H-1) C_aa                   /
--------------------------------------------------------------------------------



 WHAT, THEN, IS TIME?  IF NO ONE ASKS ME, I KNOW WHAT IT IS.
 IF I WISH TO EXPLAIN WHAT IT IS TO HIM WHO ASKS ME, I DO NOT KNOW.
                                   -- ST. AUGUSTINE (FIFTH CENTURY)
 Job cpu time:       0 days  8 hours  7 minutes 38.8 seconds.
 File lengths (MBytes):  RWF=    912 Int=      0 D2E=      0 Chk=     32 Scr=      8
 Normal termination of Gaussian 09 at Fri Sep  5 02:26:40 2014.
