 Entering Gaussian System, Link 0=g09
 Input=trans.com
 Output=trans.log
 Initial command:
 /home/ik1r11/g09/l1.exe "/home/ik1r11/oxford/Gau-15874.inp" -scrdir="/home/ik1r11/oxford/"
 Entering Link 1 = /home/ik1r11/g09/l1.exe PID=     15875.
  
 Copyright (c) 1988,1990,1992,1993,1995,1998,2003,2009,2013,
            Gaussian, Inc.  All Rights Reserved.
  
 This is part of the Gaussian(R) 09 program.  It is based on
 the Gaussian(R) 03 system (copyright 2003, Gaussian, Inc.),
 the Gaussian(R) 98 system (copyright 1998, Gaussian, Inc.),
 the Gaussian(R) 94 system (copyright 1995, Gaussian, Inc.),
 the Gaussian 92(TM) system (copyright 1992, Gaussian, Inc.),
 the Gaussian 90(TM) system (copyright 1990, Gaussian, Inc.),
 the Gaussian 88(TM) system (copyright 1988, Gaussian, Inc.),
 the Gaussian 86(TM) system (copyright 1986, Carnegie Mellon
 University), and the Gaussian 82(TM) system (copyright 1983,
 Carnegie Mellon University). Gaussian is a federally registered
 trademark of Gaussian, Inc.
  
 This software contains proprietary and confidential information,
 including trade secrets, belonging to Gaussian, Inc.
  
 This software is provided under written license and may be
 used, copied, transmitted, or stored only in accord with that
 written license.
  
 The following legend is applicable only to US Government
 contracts under FAR:
  
                    RESTRICTED RIGHTS LEGEND
  
 Use, reproduction and disclosure by the US Government is
 subject to restrictions as set forth in subparagraphs (a)
 and (c) of the Commercial Computer Software - Restricted
 Rights clause in FAR 52.227-19.
  
 Gaussian, Inc.
 340 Quinnipiac St., Bldg. 40, Wallingford CT 06492
  
  
 ---------------------------------------------------------------
 Warning -- This program may not be used in any manner that
 competes with the business of Gaussian, Inc. or will provide
 assistance to any competitor of Gaussian, Inc.  The licensee
 of this program is prohibited from giving any competitor of
 Gaussian, Inc. access to this program.  By using this program,
 the user acknowledges that Gaussian, Inc. is engaged in the
 business of creating and licensing software in the field of
 computational chemistry and represents and warrants to the
 licensee that it is not a competitor of Gaussian, Inc. and that
 it will not use this program in any manner prohibited above.
 ---------------------------------------------------------------
  

 Cite this work as:
 Gaussian 09, Revision D.01,
 M. J. Frisch, G. W. Trucks, H. B. Schlegel, G. E. Scuseria, 
 M. A. Robb, J. R. Cheeseman, G. Scalmani, V. Barone, B. Mennucci, 
 G. A. Petersson, H. Nakatsuji, M. Caricato, X. Li, H. P. Hratchian, 
 A. F. Izmaylov, J. Bloino, G. Zheng, J. L. Sonnenberg, M. Hada, 
 M. Ehara, K. Toyota, R. Fukuda, J. Hasegawa, M. Ishida, T. Nakajima, 
 Y. Honda, O. Kitao, H. Nakai, T. Vreven, J. A. Montgomery, Jr., 
 J. E. Peralta, F. Ogliaro, M. Bearpark, J. J. Heyd, E. Brothers, 
 K. N. Kudin, V. N. Staroverov, T. Keith, R. Kobayashi, J. Normand, 
 K. Raghavachari, A. Rendell, J. C. Burant, S. S. Iyengar, J. Tomasi, 
 M. Cossi, N. Rega, J. M. Millam, M. Klene, J. E. Knox, J. B. Cross, 
 V. Bakken, C. Adamo, J. Jaramillo, R. Gomperts, R. E. Stratmann, 
 O. Yazyev, A. J. Austin, R. Cammi, C. Pomelli, J. W. Ochterski, 
 R. L. Martin, K. Morokuma, V. G. Zakrzewski, G. A. Voth, 
 P. Salvador, J. J. Dannenberg, S. Dapprich, A. D. Daniels, 
 O. Farkas, J. B. Foresman, J. V. Ortiz, J. Cioslowski, 
 and D. J. Fox, Gaussian, Inc., Wallingford CT, 2013.
 
 ******************************************
 Gaussian 09:  EM64L-G09RevD.01 24-Apr-2013
                 5-Sep-2014 
 ******************************************
 %Mem=16GB
 %Chk=phenylthiaz_trans.chk
 %NProcShared=16
 Will use up to   16 processors via shared memory.
 ------------------------------------------------------------
 #p opt=tight m06/cc-pvdz integral=(grid=ultrafine) scf=tight
 ------------------------------------------------------------
 1/7=10,14=-1,18=20,19=15,26=4,38=1/1,3;
 2/9=110,12=2,17=6,18=5,40=1/2;
 3/5=16,11=2,16=1,25=1,30=1,71=1,74=-54,75=-5/1,2,3;
 4//1;
 5/5=2,32=2,38=5/2;
 6/7=2,8=2,9=2,10=2,28=1/1;
 7//1,2,3,16;
 1/7=10,14=-1,18=20,19=15,26=4/3(2);
 2/9=110/2;
 99//99;
 2/9=110/2;
 3/5=16,11=2,16=1,25=1,30=1,71=1,74=-54,75=-5/1,2,3;
 4/5=5,16=3,69=1/1;
 5/5=2,32=2,38=5/2;
 7//1,2,3,16;
 1/7=10,14=-1,18=20,19=15,26=4/3(-5);
 2/9=110/2;
 6/7=2,8=2,9=2,10=2,19=2,28=1/1;
 99/9=1/99;
 Leave Link    1 at Fri Sep  5 00:09:33 2014, MaxMem=  2147483648 cpu:         9.6
 (Enter /home/ik1r11/g09/l101.exe)
 -----------------------------------
 Trans-isomer of dimethyloxazolidine
 -----------------------------------
 Symbolic Z-matrix:
 Charge =  0 Multiplicity = 1
 C                     1.05151   0.33656   0.03172 
 C                    -0.85199   1.52169  -0.37382 
 C                    -1.06768   0.02646  -0.35191 
 H                    -1.2227    1.92471   0.54545 
 H                    -1.33834   2.01899  -1.18688 
 H                    -0.805    -0.42451  -1.28601 
 S                     0.59003   1.66069  -0.39945 
 N                    -0.10065  -0.31344   0.668 
 H                    -0.33443   0.0811    1.55664 
 C                    -2.51633  -0.38159  -0.02557 
 O                    -2.87404  -0.57915   1.2099 
 O                    -3.38273  -0.52883  -0.98529 
 C                    -4.72791  -0.90774  -0.68226 
 H                    -5.38838  -0.49649  -1.41681 
 H                    -4.80786  -1.97473  -0.6882 
 H                    -4.99403  -0.5355    0.28496 
 C                     1.41757  -0.48621  -1.21754 
 C                     1.81951   0.16136  -2.38611 
 C                     1.34741  -1.87879  -1.18077 
 C                     2.15055  -0.58353  -3.51782 
 H                     1.87399   1.25929  -2.41501 
 C                     1.67946  -2.62409  -2.31244 
 H                     1.03081  -2.38935  -0.25978 
 C                     2.08086  -1.97672  -3.48092 
 H                     2.46677  -0.07315  -4.43913 
 H                     1.62444  -3.72208  -2.28304 
 H                     2.34197  -2.56383  -4.37334 
 H                     1.90612   0.39756   0.67268 
 
 NAtoms=     28 NQM=       28 NQMF=       0 NMMI=      0 NMMIF=      0
                NMic=       0 NMicF=      0.
                    Isotopes and Nuclear Properties:
 (Nuclear quadrupole moments (NQMom) in fm**2, nuclear magnetic moments (NMagM)
  in nuclear magnetons)

  Atom         1           2           3           4           5           6           7           8           9          10
 IAtWgt=          12          12          12           1           1           1          32          14           1          12
 AtmWgt=  12.0000000  12.0000000  12.0000000   1.0078250   1.0078250   1.0078250  31.9720718  14.0030740   1.0078250  12.0000000
 NucSpn=           0           0           0           1           1           1           0           2           1           0
 AtZEff=   0.0000000   0.0000000   0.0000000   0.0000000   0.0000000   0.0000000   0.0000000   0.0000000   0.0000000   0.0000000
 NQMom=    0.0000000   0.0000000   0.0000000   0.0000000   0.0000000   0.0000000   0.0000000   2.0440000   0.0000000   0.0000000
 NMagM=    0.0000000   0.0000000   0.0000000   2.7928460   2.7928460   2.7928460   0.0000000   0.4037610   2.7928460   0.0000000
 AtZNuc=   6.0000000   6.0000000   6.0000000   1.0000000   1.0000000   1.0000000  16.0000000   7.0000000   1.0000000   6.0000000

  Atom        11          12          13          14          15          16          17          18          19          20
 IAtWgt=          16          16          12           1           1           1          12          12          12          12
 AtmWgt=  15.9949146  15.9949146  12.0000000   1.0078250   1.0078250   1.0078250  12.0000000  12.0000000  12.0000000  12.0000000
 NucSpn=           0           0           0           1           1           1           0           0           0           0
 AtZEff=   0.0000000   0.0000000   0.0000000   0.0000000   0.0000000   0.0000000   0.0000000   0.0000000   0.0000000   0.0000000
 NQMom=    0.0000000   0.0000000   0.0000000   0.0000000   0.0000000   0.0000000   0.0000000   0.0000000   0.0000000   0.0000000
 NMagM=    0.0000000   0.0000000   0.0000000   2.7928460   2.7928460   2.7928460   0.0000000   0.0000000   0.0000000   0.0000000
 AtZNuc=   8.0000000   8.0000000   6.0000000   1.0000000   1.0000000   1.0000000   6.0000000   6.0000000   6.0000000   6.0000000

  Atom        21          22          23          24          25          26          27          28
 IAtWgt=           1          12           1          12           1           1           1           1
 AtmWgt=   1.0078250  12.0000000   1.0078250  12.0000000   1.0078250   1.0078250   1.0078250   1.0078250
 NucSpn=           1           0           1           0           1           1           1           1
 AtZEff=   0.0000000   0.0000000   0.0000000   0.0000000   0.0000000   0.0000000   0.0000000   0.0000000
 NQMom=    0.0000000   0.0000000   0.0000000   0.0000000   0.0000000   0.0000000   0.0000000   0.0000000
 NMagM=    2.7928460   0.0000000   2.7928460   0.0000000   2.7928460   2.7928460   2.7928460   2.7928460
 AtZNuc=   1.0000000   6.0000000   1.0000000   6.0000000   1.0000000   1.0000000   1.0000000   1.0000000
 Leave Link  101 at Fri Sep  5 00:09:33 2014, MaxMem=  2147483648 cpu:         5.4
 (Enter /home/ik1r11/g09/l103.exe)

 GradGradGradGradGradGradGradGradGradGradGradGradGradGradGradGradGradGrad
 Berny optimization.
 Initialization pass.
                           ----------------------------
                           !    Initial Parameters    !
                           ! (Angstroms and Degrees)  !
 --------------------------                            --------------------------
 ! Name  Definition              Value          Derivative Info.                !
 --------------------------------------------------------------------------------
 ! R1    R(1,7)                  1.467          estimate D2E/DX2                !
 ! R2    R(1,8)                  1.4679         estimate D2E/DX2                !
 ! R3    R(1,17)                 1.54           estimate D2E/DX2                !
 ! R4    R(1,28)                 1.07           estimate D2E/DX2                !
 ! R5    R(2,3)                  1.5109         estimate D2E/DX2                !
 ! R6    R(2,4)                  1.07           estimate D2E/DX2                !
 ! R7    R(2,5)                  1.07           estimate D2E/DX2                !
 ! R8    R(2,7)                  1.4489         estimate D2E/DX2                !
 ! R9    R(3,6)                  1.07           estimate D2E/DX2                !
 ! R10   R(3,8)                  1.446          estimate D2E/DX2                !
 ! R11   R(3,10)                 1.54           estimate D2E/DX2                !
 ! R12   R(8,9)                  1.0            estimate D2E/DX2                !
 ! R13   R(10,11)                1.3013         estimate D2E/DX2                !
 ! R14   R(10,12)                1.3013         estimate D2E/DX2                !
 ! R15   R(12,13)                1.43           estimate D2E/DX2                !
 ! R16   R(13,14)                1.07           estimate D2E/DX2                !
 ! R17   R(13,15)                1.07           estimate D2E/DX2                !
 ! R18   R(13,16)                1.07           estimate D2E/DX2                !
 ! R19   R(17,18)                1.3952         estimate D2E/DX2                !
 ! R20   R(17,19)                1.3948         estimate D2E/DX2                !
 ! R21   R(18,20)                1.3947         estimate D2E/DX2                !
 ! R22   R(18,21)                1.0997         estimate D2E/DX2                !
 ! R23   R(19,22)                1.3951         estimate D2E/DX2                !
 ! R24   R(19,23)                1.0996         estimate D2E/DX2                !
 ! R25   R(20,24)                1.3954         estimate D2E/DX2                !
 ! R26   R(20,25)                1.0997         estimate D2E/DX2                !
 ! R27   R(22,24)                1.3948         estimate D2E/DX2                !
 ! R28   R(22,26)                1.0998         estimate D2E/DX2                !
 ! R29   R(24,27)                1.0997         estimate D2E/DX2                !
 ! A1    A(7,1,8)              106.27           estimate D2E/DX2                !
 ! A2    A(7,1,17)             108.5767         estimate D2E/DX2                !
 ! A3    A(7,1,28)             112.0764         estimate D2E/DX2                !
 ! A4    A(8,1,17)             107.5545         estimate D2E/DX2                !
 ! A5    A(8,1,28)             113.1095         estimate D2E/DX2                !
 ! A6    A(17,1,28)            109.0587         estimate D2E/DX2                !
 ! A7    A(3,2,4)              108.1096         estimate D2E/DX2                !
 ! A8    A(3,2,5)              113.9591         estimate D2E/DX2                !
 ! A9    A(3,2,7)              103.7253         estimate D2E/DX2                !
 ! A10   A(4,2,5)              108.6807         estimate D2E/DX2                !
 ! A11   A(4,2,7)              108.8969         estimate D2E/DX2                !
 ! A12   A(5,2,7)              113.2251         estimate D2E/DX2                !
 ! A13   A(2,3,6)              111.6782         estimate D2E/DX2                !
 ! A14   A(2,3,8)               98.4756         estimate D2E/DX2                !
 ! A15   A(2,3,10)             113.5523         estimate D2E/DX2                !
 ! A16   A(6,3,8)              110.6403         estimate D2E/DX2                !
 ! A17   A(6,3,10)             107.7132         estimate D2E/DX2                !
 ! A18   A(8,3,10)             114.6672         estimate D2E/DX2                !
 ! A19   A(1,7,2)              102.7844         estimate D2E/DX2                !
 ! A20   A(1,8,3)               96.6089         estimate D2E/DX2                !
 ! A21   A(1,8,9)              113.2014         estimate D2E/DX2                !
 ! A22   A(3,8,9)              112.1915         estimate D2E/DX2                !
 ! A23   A(3,10,11)            120.0            estimate D2E/DX2                !
 ! A24   A(3,10,12)            120.0            estimate D2E/DX2                !
 ! A25   A(11,10,12)           120.0            estimate D2E/DX2                !
 ! A26   A(10,12,13)           120.0            estimate D2E/DX2                !
 ! A27   A(12,13,14)           109.4712         estimate D2E/DX2                !
 ! A28   A(12,13,15)           109.4712         estimate D2E/DX2                !
 ! A29   A(12,13,16)           109.4712         estimate D2E/DX2                !
 ! A30   A(14,13,15)           109.4712         estimate D2E/DX2                !
 ! A31   A(14,13,16)           109.4712         estimate D2E/DX2                !
 ! A32   A(15,13,16)           109.4712         estimate D2E/DX2                !
 ! A33   A(1,17,18)            119.9972         estimate D2E/DX2                !
 ! A34   A(1,17,19)            120.0043         estimate D2E/DX2                !
 ! A35   A(18,17,19)           119.9985         estimate D2E/DX2                !
 ! A36   A(17,18,20)           120.0086         estimate D2E/DX2                !
 ! A37   A(17,18,21)           119.9808         estimate D2E/DX2                !
 ! A38   A(20,18,21)           120.0105         estimate D2E/DX2                !
 ! A39   A(17,19,22)           120.0            estimate D2E/DX2                !
 ! A40   A(17,19,23)           120.008          estimate D2E/DX2                !
 ! A41   A(22,19,23)           119.992          estimate D2E/DX2                !
 ! A42   A(18,20,24)           119.9942         estimate D2E/DX2                !
 ! A43   A(18,20,25)           120.0128         estimate D2E/DX2                !
 ! A44   A(24,20,25)           119.993          estimate D2E/DX2                !
 ! A45   A(19,22,24)           120.0047         estimate D2E/DX2                !
 ! A46   A(19,22,26)           119.984          estimate D2E/DX2                !
 ! A47   A(24,22,26)           120.0113         estimate D2E/DX2                !
 ! A48   A(20,24,22)           119.994          estimate D2E/DX2                !
 ! A49   A(20,24,27)           119.9811         estimate D2E/DX2                !
 ! A50   A(22,24,27)           120.0249         estimate D2E/DX2                !
 ! D1    D(8,1,7,2)            -17.4067         estimate D2E/DX2                !
 ! D2    D(17,1,7,2)            98.0325         estimate D2E/DX2                !
 ! D3    D(28,1,7,2)          -141.4336         estimate D2E/DX2                !
 ! D4    D(7,1,8,3)             46.027          estimate D2E/DX2                !
 ! D5    D(7,1,8,9)            -71.5765         estimate D2E/DX2                !
 ! D6    D(17,1,8,3)           -70.1025         estimate D2E/DX2                !
 ! D7    D(17,1,8,9)           172.2941         estimate D2E/DX2                !
 ! D8    D(28,1,8,3)           169.4093         estimate D2E/DX2                !
 ! D9    D(28,1,8,9)            51.8059         estimate D2E/DX2                !
 ! D10   D(7,1,17,18)           26.6419         estimate D2E/DX2                !
 ! D11   D(7,1,17,19)         -153.3634         estimate D2E/DX2                !
 ! D12   D(8,1,17,18)          141.2443         estimate D2E/DX2                !
 ! D13   D(8,1,17,19)          -38.761          estimate D2E/DX2                !
 ! D14   D(28,1,17,18)         -95.7431         estimate D2E/DX2                !
 ! D15   D(28,1,17,19)          84.2517         estimate D2E/DX2                !
 ! D16   D(4,2,3,6)            174.3721         estimate D2E/DX2                !
 ! D17   D(4,2,3,8)            -69.3482         estimate D2E/DX2                !
 ! D18   D(4,2,3,10)            52.3372         estimate D2E/DX2                !
 ! D19   D(5,2,3,6)             53.4357         estimate D2E/DX2                !
 ! D20   D(5,2,3,8)            169.7153         estimate D2E/DX2                !
 ! D21   D(5,2,3,10)           -68.5992         estimate D2E/DX2                !
 ! D22   D(7,2,3,6)            -70.1199         estimate D2E/DX2                !
 ! D23   D(7,2,3,8)             46.1598         estimate D2E/DX2                !
 ! D24   D(7,2,3,10)           167.8452         estimate D2E/DX2                !
 ! D25   D(3,2,7,1)            -17.1768         estimate D2E/DX2                !
 ! D26   D(4,2,7,1)             97.7719         estimate D2E/DX2                !
 ! D27   D(5,2,7,1)           -141.2114         estimate D2E/DX2                !
 ! D28   D(2,3,8,1)            -54.2868         estimate D2E/DX2                !
 ! D29   D(2,3,8,9)             64.111          estimate D2E/DX2                !
 ! D30   D(6,3,8,1)             62.7923         estimate D2E/DX2                !
 ! D31   D(6,3,8,9)           -178.8099         estimate D2E/DX2                !
 ! D32   D(10,3,8,1)          -175.1509         estimate D2E/DX2                !
 ! D33   D(10,3,8,9)           -56.7531         estimate D2E/DX2                !
 ! D34   D(2,3,10,11)          -90.25           estimate D2E/DX2                !
 ! D35   D(2,3,10,12)           89.75           estimate D2E/DX2                !
 ! D36   D(6,3,10,11)          145.5391         estimate D2E/DX2                !
 ! D37   D(6,3,10,12)          -34.4609         estimate D2E/DX2                !
 ! D38   D(8,3,10,11)           21.9051         estimate D2E/DX2                !
 ! D39   D(8,3,10,12)         -158.0949         estimate D2E/DX2                !
 ! D40   D(3,10,12,13)         179.9999         estimate D2E/DX2                !
 ! D41   D(11,10,12,13)         -0.0001         estimate D2E/DX2                !
 ! D42   D(10,12,13,14)        150.0            estimate D2E/DX2                !
 ! D43   D(10,12,13,15)        -90.0            estimate D2E/DX2                !
 ! D44   D(10,12,13,16)         30.0            estimate D2E/DX2                !
 ! D45   D(1,17,18,20)        -179.9729         estimate D2E/DX2                !
 ! D46   D(1,17,18,21)          -0.052          estimate D2E/DX2                !
 ! D47   D(19,17,18,20)          0.0323         estimate D2E/DX2                !
 ! D48   D(19,17,18,21)        179.9532         estimate D2E/DX2                !
 ! D49   D(1,17,19,22)        -179.9798         estimate D2E/DX2                !
 ! D50   D(1,17,19,23)          -0.0056         estimate D2E/DX2                !
 ! D51   D(18,17,19,22)          0.0149         estimate D2E/DX2                !
 ! D52   D(18,17,19,23)        179.9892         estimate D2E/DX2                !
 ! D53   D(17,18,20,24)         -0.0568         estimate D2E/DX2                !
 ! D54   D(17,18,20,25)        179.9619         estimate D2E/DX2                !
 ! D55   D(21,18,20,24)       -179.9777         estimate D2E/DX2                !
 ! D56   D(21,18,20,25)          0.041          estimate D2E/DX2                !
 ! D57   D(17,19,22,24)         -0.0376         estimate D2E/DX2                !
 ! D58   D(17,19,22,26)        179.975          estimate D2E/DX2                !
 ! D59   D(23,19,22,24)        179.9881         estimate D2E/DX2                !
 ! D60   D(23,19,22,26)          0.0007         estimate D2E/DX2                !
 ! D61   D(18,20,24,22)          0.0341         estimate D2E/DX2                !
 ! D62   D(18,20,24,27)       -179.9964         estimate D2E/DX2                !
 ! D63   D(25,20,24,22)       -179.9846         estimate D2E/DX2                !
 ! D64   D(25,20,24,27)         -0.0151         estimate D2E/DX2                !
 ! D65   D(19,22,24,20)          0.0131         estimate D2E/DX2                !
 ! D66   D(19,22,24,27)       -179.9563         estimate D2E/DX2                !
 ! D67   D(26,22,24,20)       -179.9995         estimate D2E/DX2                !
 ! D68   D(26,22,24,27)          0.0311         estimate D2E/DX2                !
 --------------------------------------------------------------------------------
 Trust Radius=3.00D-01 FncErr=1.00D-07 GrdErr=1.00D-06
 Number of steps in this run=    157 maximum allowed number of steps=    168.
 GradGradGradGradGradGradGradGradGradGradGradGradGradGradGradGradGradGrad

 Leave Link  103 at Fri Sep  5 00:09:33 2014, MaxMem=  2147483648 cpu:         1.6
 (Enter /home/ik1r11/g09/l202.exe)
                          Input orientation:                          
 ---------------------------------------------------------------------
 Center     Atomic      Atomic             Coordinates (Angstroms)
 Number     Number       Type             X           Y           Z
 ---------------------------------------------------------------------
      1          6           0        1.051511    0.336557    0.031725
      2          6           0       -0.851990    1.521694   -0.373822
      3          6           0       -1.067677    0.026456   -0.351913
      4          1           0       -1.222695    1.924709    0.545448
      5          1           0       -1.338342    2.018992   -1.186876
      6          1           0       -0.804999   -0.424506   -1.286009
      7         16           0        0.590034    1.660686   -0.399449
      8          7           0       -0.100647   -0.313445    0.667996
      9          1           0       -0.334426    0.081100    1.556637
     10          6           0       -2.516331   -0.381592   -0.025574
     11          8           0       -2.874045   -0.579154    1.209898
     12          8           0       -3.382731   -0.528831   -0.985290
     13          6           0       -4.727909   -0.907736   -0.682261
     14          1           0       -5.388376   -0.496490   -1.416810
     15          1           0       -4.807857   -1.974728   -0.688196
     16          1           0       -4.994027   -0.535504    0.284964
     17          6           0        1.417572   -0.486212   -1.217536
     18          6           0        1.819515    0.161362   -2.386108
     19          6           0        1.347408   -1.878790   -1.180773
     20          6           0        2.150552   -0.583527   -3.517822
     21          1           0        1.873988    1.259287   -2.415005
     22          6           0        1.679460   -2.624092   -2.312442
     23          1           0        1.030805   -2.389349   -0.259783
     24          6           0        2.080859   -1.976723   -3.480915
     25          1           0        2.466773   -0.073147   -4.439133
     26          1           0        1.624441   -3.722082   -2.283036
     27          1           0        2.341975   -2.563832   -4.373338
     28          1           0        1.906121    0.397558    0.672677
 ---------------------------------------------------------------------
                    Distance matrix (angstroms):
                    1          2          3          4          5
     1  C    0.000000
     2  C    2.278669   0.000000
     3  C    2.175844   1.510874   0.000000
     4  H    2.821020   1.070000   2.105387   0.000000
     5  H    3.166539   1.070000   2.177296   1.738737   0.000000
     6  H    2.400472   2.149881   1.070000   3.007909   2.502990
     7  S    1.467034   1.448933   2.328298   2.061195   2.113541
     8  N    1.467928   2.240008   1.445993   2.506660   3.226871
     9  H    2.076400   2.463708   2.045289   2.282635   3.505729
    10  C    3.639851   2.552217   1.540000   2.705289   2.915319
    11  O    4.199596   3.318199   2.463531   3.072098   3.853994
    12  O    4.630952   3.314091   2.463531   3.609539   3.272853
    13  C    5.954808   4.584759   3.791984   4.670818   4.506610
    14  H    6.653146   5.073430   4.480615   5.202457   4.773185
    15  H    6.339756   5.288921   4.255205   5.438830   5.313757
    16  H    6.113358   4.671460   4.017168   4.510371   4.696360
    17  C    1.540000   3.145544   2.681155   3.986435   3.724519
    18  C    2.542919   3.610642   3.534406   4.578040   3.854997
    19  C    2.542728   4.129384   3.185845   4.904271   4.733497
    20  C    3.828019   4.830316   4.555442   5.846384   4.937488
    21  H    2.741238   3.415588   3.798633   4.335495   3.522004
    22  C    3.828169   5.230108   4.291368   6.105869   5.650863
    23  H    2.741526   4.342140   3.201285   4.933331   5.089776
    24  C    4.330065   5.522188   4.869975   6.507399   5.737533
    25  H    4.707376   5.484930   5.404407   6.515339   5.425230
    26  H    4.707326   6.105326   5.002826   6.927681   6.552830
    27  H    5.429745   6.548974   5.874281   7.553035   6.685847
    28  H    1.070000   3.156900   3.167172   3.483945   4.075969
                    6          7          8          9         10
     6  H    0.000000
     7  S    2.660851   0.000000
     8  N    2.080043   2.348121   0.000000
     9  H    2.925356   2.678803   1.000000   0.000000
    10  C    2.125840   3.736333   2.514202   2.734628   0.000000
    11  O    3.245677   4.427948   2.838308   2.646853   1.301300
    12  O    2.597309   4.573844   3.681279   4.015666   1.301300
    13  C    3.998405   5.912469   4.856740   5.029230   2.366250
    14  H    4.585808   6.436599   5.686826   5.892148   3.193333
    15  H    4.333986   6.514356   5.172711   5.410849   2.868490
    16  H    4.475291   6.039322   4.913368   4.869213   2.501819
    17  C    2.224481   2.441978   2.426946   3.329770   4.111850
    18  C    2.905432   2.776042   3.638683   4.493455   4.966536
    19  C    2.599783   3.702968   2.822254   3.763395   4.301693
    20  C    3.706961   4.146801   4.760453   5.689198   5.832355
    21  H    3.359578   2.423247   3.984667   4.694588   5.260871
    22  C    3.473368   4.817231   4.170238   5.132599   5.278564
    23  H    2.878181   4.076342   2.539751   3.356539   4.082660
    24  C    3.944005   4.994872   4.973825   5.953585   5.968080
    25  H    4.557427   4.779893   5.721202   6.619649   6.663780
    26  H    4.215478   5.795868   4.827352   5.748429   5.779360
    27  H    4.900180   6.058684   6.037027   7.023061   6.875199
    28  H    3.444185   2.115900   2.129006   2.429317   4.544526
                   11         12         13         14         15
    11  O    0.000000
    12  O    2.253918   0.000000
    13  C    2.669278   1.430000   0.000000
    14  H    3.637071   2.051796   1.070000   0.000000
    15  H    3.047953   2.051796   1.070000   1.747303   0.000000
    16  H    2.313381   2.051796   1.070000   1.747303   1.747303
    17  C    4.931434   4.806106   6.183133   6.808872   6.422759
    18  C    5.958953   5.431576   6.849440   7.302465   7.167136
    19  C    5.022452   4.922887   6.172596   6.880207   6.175688
    20  C    6.899125   6.085550   7.447063   7.826701   7.639481
    21  H    6.250089   5.733633   7.161245   7.537975   7.621533
    22  C    6.109260   5.637129   6.830648   7.435264   6.719012
    23  H    4.548035   4.844294   5.961246   6.791723   5.869022
    24  C    6.964769   6.178620   7.438718   7.889302   7.433282
    25  H    7.790502   6.808331   8.159294   8.427159   8.402724
    26  H    6.504994   6.078878   7.129893   7.767521   6.853554
    27  H    7.894196   6.956461   8.145548   8.530726   8.065197
    28  H    4.908417   5.619520   6.895651   7.640351   7.249635
                   16         17         18         19         20
    16  H    0.000000
    17  C    6.585479   0.000000
    18  C    7.351503   1.395160   0.000000
    19  C    6.645796   1.394829   2.416183   0.000000
    20  C    8.093732   2.416205   1.394712   2.790080   0.000000
    21  H    7.594784   2.165414   1.099655   3.412938   2.165330
    22  C    7.459501   2.416183   2.789946   1.395138   2.416356
    23  H    6.327092   2.165365   3.413128   1.099604   3.889684
    24  C    8.143278   2.790065   2.416260   2.416236   1.395427
    25  H    8.842760   3.413229   2.165375   3.889760   1.099680
    26  H    7.781582   3.413055   3.889707   2.165516   3.413506
    27  H    8.923610   3.889745   3.413024   3.413344   2.165678
    28  H    6.973734   2.143043   3.069113   2.988176   4.310749
                   21         22         23         24         25
    21  H    0.000000
    22  C    3.889601   0.000000
    23  H    4.320704   2.165471   0.000000
    24  C    3.413316   1.394825   3.412999   0.000000
    25  H    2.494768   3.413209   4.989364   2.165806   0.000000
    26  H    4.989362   1.099761   2.494420   2.165528   4.321228
    27  H    4.320917   2.165606   4.320988   1.099680   2.494678
    28  H    3.205837   4.253550   3.066351   4.787492   5.163961
                   26         27         28
    26  H    0.000000
    27  H    2.495147   0.000000
    28  H    5.078092   5.867032   0.000000
 Stoichiometry    C11H13NO2S
 Framework group  C1[X(C11H13NO2S)]
 Deg. of freedom    78
 Full point group                 C1      NOp   1
 Largest Abelian subgroup         C1      NOp   1
 Largest concise Abelian subgroup C1      NOp   1
                         Standard orientation:                         
 ---------------------------------------------------------------------
 Center     Atomic      Atomic             Coordinates (Angstroms)
 Number     Number       Type             X           Y           Z
 ---------------------------------------------------------------------
      1          6           0        0.752543    1.380553    0.777246
      2          6           0       -0.925617    1.544518   -0.755473
      3          6           0       -0.966105    0.264386    0.046002
      4          1           0       -1.687295    2.195846   -0.380614
      5          1           0       -1.079954    1.405094   -1.805064
      6          1           0       -0.290499   -0.467827   -0.344280
      7         16           0        0.371201    2.107713   -0.438487
      8          7           0       -0.481395    0.785572    1.304698
      9          1           0       -1.105816    1.459155    1.700153
     10          6           0       -2.364857   -0.376535    0.111680
     11          8           0       -3.181013   -0.060057    1.074547
     12          8           0       -2.730646   -1.234592   -0.795689
     13          6           0       -4.029486   -1.829735   -0.734701
     14          1           0       -4.364270   -2.057588   -1.725106
     15          1           0       -3.982640   -2.729878   -0.158118
     16          1           0       -4.713407   -1.147055   -0.275244
     17          6           0        1.693402    0.226570    0.383914
     18          6           0        2.472446    0.323983   -0.769373
     19          6           0        1.766836   -0.915952    1.180656
     20          6           0        3.324203   -0.721226   -1.126125
     21          1           0        2.413751    1.224532   -1.397710
     22          6           0        2.619535   -1.961152    0.824465
     23          1           0        1.153030   -0.992819    2.089756
     24          6           0        3.398070   -1.864034   -0.328786
     25          1           0        3.937818   -0.644782   -2.035482
     26          1           0        2.677532   -2.861686    1.453075
     27          1           0        4.069765   -2.687990   -0.610242
     28          1           0        1.249966    2.011519    1.483895
 ---------------------------------------------------------------------
 Rotational constants (GHZ):      0.8797076      0.3761958      0.3140740
 Leave Link  202 at Fri Sep  5 00:09:34 2014, MaxMem=  2147483648 cpu:         2.4
 (Enter /home/ik1r11/g09/l301.exe)
 Standard basis: CC-pVDZ (5D, 7F)
 Ernie: Thresh=  0.10000D-02 Tol=  0.10000D-05 Strict=F.
 Ernie:  38 primitive shells out of 423 were deleted.
 There are   294 symmetry adapted cartesian basis functions of A   symmetry.
 There are   279 symmetry adapted basis functions of A   symmetry.
   279 basis functions,   624 primitive gaussians,   294 cartesian basis functions
    59 alpha electrons       59 beta electrons
       nuclear repulsion energy      1143.9280339522 Hartrees.
 IExCor= 4235 DFT=T Ex+Corr=M06 ExCW=0 ScaHFX=  0.270000
 ScaDFX=  1.000000  1.000000  1.000000  1.000000 ScalE2=  1.000000  1.000000
 IRadAn=      5 IRanWt=     -1 IRanGd=            0 ICorTp=0 IEmpDi=  4
 NAtoms=   28 NActive=   28 NUniq=   28 SFac= 1.00D+00 NAtFMM=   60 NAOKFM=F Big=F
 Integral buffers will be    131072 words long.
 Raffenetti 2 integral format.
 Two-electron integral symmetry is turned on.
 Leave Link  301 at Fri Sep  5 00:09:34 2014, MaxMem=  2147483648 cpu:         5.1
 (Enter /home/ik1r11/g09/l302.exe)
 NPDir=0 NMtPBC=     1 NCelOv=     1 NCel=       1 NClECP=     1 NCelD=      1
         NCelK=      1 NCelE2=     1 NClLst=     1 CellRange=     0.0.
 One-electron integrals computed using PRISM.
 NBasis=   279 RedAO= T EigKep=  3.12D-04  NBF=   279
 NBsUse=   279 1.00D-06 EigRej= -1.00D+00 NBFU=   279
 Precomputing XC quadrature grid using
 IXCGrd= 4 IRadAn=           5 IRanWt=          -1 IRanGd=           0 AccXCQ= 0.00D+00.
 Generated NRdTot=       0 NPtTot=           0 NUsed=           0 NTot=          32
 NSgBfM=   294   294   294   294   294 MxSgAt=    28 MxSgA2=    28.
 Leave Link  302 at Fri Sep  5 00:09:35 2014, MaxMem=  2147483648 cpu:         9.4
 (Enter /home/ik1r11/g09/l303.exe)
 DipDrv:  MaxL=1.
 Leave Link  303 at Fri Sep  5 00:09:35 2014, MaxMem=  2147483648 cpu:         0.8
 (Enter /home/ik1r11/g09/l401.exe)
 ExpMin= 1.22D-01 ExpMax= 1.11D+05 ExpMxC= 1.07D+03 IAcc=3 IRadAn=         5 AccDes= 0.00D+00
 Harris functional with IExCor= 1009 and IRadAn=       5 diagonalized for initial guess.
 HarFok:  IExCor= 1009 AccDes= 0.00D+00 IRadAn=         5 IDoV= 1 UseB2=F ITyADJ=14
 ICtDFT=  3500011 ScaDFX=  1.000000  1.000000  1.000000  1.000000
 FoFCou: FMM=F IPFlag=           0 FMFlag=      100000 FMFlg1=           0
         NFxFlg=           0 DoJE=T BraDBF=F KetDBF=T FulRan=T
         wScrn=  0.000000 ICntrl=     500 IOpCl=  0 I1Cent=   200000004 NGrid=           0
         NMat0=    1 NMatS0=      1 NMatT0=    0 NMatD0=    1 NMtDS0=    0 NMtDT0=    0
 Petite list used in FoFCou.
 Harris En= -1029.41008327971    
 JPrj=0 DoOrth=F DoCkMO=F.
 Leave Link  401 at Fri Sep  5 00:09:37 2014, MaxMem=  2147483648 cpu:        25.3
 (Enter /home/ik1r11/g09/l502.exe)
 Closed shell SCF:
 Using DIIS extrapolation, IDIIS=  1040.
 Integral symmetry usage will be decided dynamically.
 Keep R1 ints in memory in canonical form, NReq=775982162.
 IVT=      284792 IEndB=      284792 NGot=  2147483648 MDV=  1384337527
 LenX=  1384337527 LenY=  1384250650
 Requested convergence on RMS density matrix=1.00D-08 within 128 cycles.
 Requested convergence on MAX density matrix=1.00D-06.
 Requested convergence on             energy=1.00D-06.
 No special actions if energy rises.
 FoFCou: FMM=F IPFlag=           0 FMFlag=           0 FMFlg1=           0
         NFxFlg=           0 DoJE=F BraDBF=F KetDBF=F FulRan=T
         wScrn=  0.000000 ICntrl=     600 IOpCl=  0 I1Cent=           0 NGrid=           0
         NMat0=    1 NMatS0=  39060 NMatT0=    0 NMatD0=    1 NMtDS0=    0 NMtDT0=    0
 Symmetry not used in FoFCou.
 Integral accuracy reduced to 1.0D-05 until final iterations.

 Cycle   1  Pass 0  IDiag  1:
 E= -1029.41333840826    
 DIIS: error= 2.60D-02 at cycle   1 NSaved=   1.
 NSaved= 1 IEnMin= 1 EnMin= -1029.41333840826     IErMin= 1 ErrMin= 2.60D-02
 ErrMax= 2.60D-02  0.00D+00 EMaxC= 1.00D-01 BMatC= 3.04D-01 BMatP= 3.04D-01
 IDIUse=3 WtCom= 7.40D-01 WtEn= 2.60D-01
 Coeff-Com:  0.100D+01
 Coeff-En:   0.100D+01
 Coeff:      0.100D+01
 Gap=     0.267 Goal=   None    Shift=    0.000
 GapD=    0.267 DampG=1.000 DampE=0.500 DampFc=0.5000 IDamp=-1.
 Damping current iteration by 5.00D-01
 RMSDP=4.83D-03 MaxDP=1.81D-01              OVMax= 2.96D-01

 Cycle   2  Pass 0  IDiag  1:
 E= -1029.51078952866     Delta-E=       -0.097451120405 Rises=F Damp=T
 DIIS: error= 1.02D-02 at cycle   2 NSaved=   2.
 NSaved= 2 IEnMin= 2 EnMin= -1029.51078952866     IErMin= 2 ErrMin= 1.02D-02
 ErrMax= 1.02D-02  0.00D+00 EMaxC= 1.00D-01 BMatC= 4.41D-02 BMatP= 3.04D-01
 IDIUse=3 WtCom= 8.98D-01 WtEn= 1.02D-01
 Coeff-Com:  0.204D+00 0.796D+00
 Coeff-En:   0.298D+00 0.702D+00
 Coeff:      0.214D+00 0.786D+00
 Gap=     0.264 Goal=   None    Shift=    0.000
 RMSDP=1.45D-03 MaxDP=6.09D-02 DE=-9.75D-02 OVMax= 2.15D-01

 Cycle   3  Pass 0  IDiag  1:
 E= -1029.68026759203     Delta-E=       -0.169478063364 Rises=F Damp=F
 DIIS: error= 1.19D-02 at cycle   3 NSaved=   3.
 NSaved= 3 IEnMin= 3 EnMin= -1029.68026759203     IErMin= 2 ErrMin= 1.02D-02
 ErrMax= 1.19D-02  0.00D+00 EMaxC= 1.00D-01 BMatC= 5.16D-02 BMatP= 4.41D-02
 IDIUse=2 WtCom= 0.00D+00 WtEn= 1.00D+00
 Coeff-En:   0.000D+00 0.000D+00 0.100D+01
 Coeff:      0.000D+00 0.000D+00 0.100D+01
 Gap=     0.186 Goal=   None    Shift=    0.000
 RMSDP=2.14D-03 MaxDP=1.28D-01 DE=-1.69D-01 OVMax= 2.38D-01

 Cycle   4  Pass 0  IDiag  1:
 E= -1029.47832233041     Delta-E=        0.201945261611 Rises=F Damp=F
 DIIS: error= 3.14D-02 at cycle   4 NSaved=   4.
 NSaved= 4 IEnMin= 3 EnMin= -1029.68026759203     IErMin= 2 ErrMin= 1.02D-02
 ErrMax= 3.14D-02  0.00D+00 EMaxC= 1.00D-01 BMatC= 3.07D-01 BMatP= 4.41D-02
 IDIUse=2 WtCom= 0.00D+00 WtEn= 1.00D+00
 Coeff-En:   0.000D+00 0.000D+00 0.798D+00 0.202D+00
 Coeff:      0.000D+00 0.000D+00 0.798D+00 0.202D+00
 Gap=     0.237 Goal=   None    Shift=    0.000
 RMSDP=1.15D-03 MaxDP=6.78D-02 DE= 2.02D-01 OVMax= 1.46D-01

 Cycle   5  Pass 0  IDiag  1:
 E= -1029.70607596545     Delta-E=       -0.227753635038 Rises=F Damp=F
 DIIS: error= 8.15D-03 at cycle   5 NSaved=   5.
 NSaved= 5 IEnMin= 5 EnMin= -1029.70607596545     IErMin= 5 ErrMin= 8.15D-03
 ErrMax= 8.15D-03  0.00D+00 EMaxC= 1.00D-01 BMatC= 2.15D-02 BMatP= 4.41D-02
 IDIUse=3 WtCom= 9.19D-01 WtEn= 8.15D-02
 Coeff-Com: -0.541D-02 0.589D-01 0.296D+00-0.981D-01 0.749D+00
 Coeff-En:   0.000D+00 0.000D+00 0.331D+00 0.000D+00 0.669D+00
 Coeff:     -0.497D-02 0.541D-01 0.298D+00-0.901D-01 0.743D+00
 Gap=     0.193 Goal=   None    Shift=    0.000
 RMSDP=4.11D-04 MaxDP=2.41D-02 DE=-2.28D-01 OVMax= 4.32D-02

 Cycle   6  Pass 0  IDiag  1:
 E= -1029.72340180567     Delta-E=       -0.017325840213 Rises=F Damp=F
 DIIS: error= 3.91D-04 at cycle   6 NSaved=   6.
 NSaved= 6 IEnMin= 6 EnMin= -1029.72340180567     IErMin= 6 ErrMin= 3.91D-04
 ErrMax= 3.91D-04  0.00D+00 EMaxC= 1.00D-01 BMatC= 9.45D-05 BMatP= 2.15D-02
 IDIUse=3 WtCom= 9.96D-01 WtEn= 3.91D-03
 Coeff-Com: -0.588D-02 0.267D-01 0.136D+00-0.638D-01 0.422D+00 0.484D+00
 Coeff-En:   0.000D+00 0.000D+00 0.000D+00 0.000D+00 0.000D+00 0.100D+01
 Coeff:     -0.585D-02 0.266D-01 0.136D+00-0.636D-01 0.421D+00 0.486D+00
 Gap=     0.192 Goal=   None    Shift=    0.000
 RMSDP=4.29D-05 MaxDP=1.48D-03 DE=-1.73D-02 OVMax= 3.17D-03

 Cycle   7  Pass 0  IDiag  1:
 E= -1029.72348163354     Delta-E=       -0.000079827870 Rises=F Damp=F
 DIIS: error= 1.54D-04 at cycle   7 NSaved=   7.
 NSaved= 7 IEnMin= 7 EnMin= -1029.72348163354     IErMin= 7 ErrMin= 1.54D-04
 ErrMax= 1.54D-04  0.00D+00 EMaxC= 1.00D-01 BMatC= 7.46D-06 BMatP= 9.45D-05
 IDIUse=3 WtCom= 9.98D-01 WtEn= 1.54D-03
 Coeff-Com: -0.138D-02 0.168D-02 0.202D-01-0.118D-01 0.714D-01 0.234D+00
 Coeff-Com:  0.686D+00
 Coeff-En:   0.000D+00 0.000D+00 0.000D+00 0.000D+00 0.000D+00 0.456D-01
 Coeff-En:   0.954D+00
 Coeff:     -0.138D-02 0.167D-02 0.201D-01-0.117D-01 0.713D-01 0.233D+00
 Coeff:      0.687D+00
 Gap=     0.192 Goal=   None    Shift=    0.000
 RMSDP=1.26D-05 MaxDP=3.69D-04 DE=-7.98D-05 OVMax= 1.03D-03

 Cycle   8  Pass 0  IDiag  1:
 E= -1029.72348811949     Delta-E=       -0.000006485955 Rises=F Damp=F
 DIIS: error= 5.02D-05 at cycle   8 NSaved=   8.
 NSaved= 8 IEnMin= 8 EnMin= -1029.72348811949     IErMin= 8 ErrMin= 5.02D-05
 ErrMax= 5.02D-05  0.00D+00 EMaxC= 1.00D-01 BMatC= 8.66D-07 BMatP= 7.46D-06
 IDIUse=1 WtCom= 1.00D+00 WtEn= 0.00D+00
 Coeff-Com: -0.272D-03-0.120D-02 0.873D-03-0.137D-02 0.646D-02 0.962D-01
 Coeff-Com:  0.387D+00 0.513D+00
 Coeff:     -0.272D-03-0.120D-02 0.873D-03-0.137D-02 0.646D-02 0.962D-01
 Coeff:      0.387D+00 0.513D+00
 Gap=     0.192 Goal=   None    Shift=    0.000
 RMSDP=4.21D-06 MaxDP=1.33D-04 DE=-6.49D-06 OVMax= 3.54D-04

 Initial convergence to 1.0D-05 achieved.  Increase integral accuracy.
 Cycle   9  Pass 1  IDiag  1:
 E= -1029.72357999539     Delta-E=       -0.000091875899 Rises=F Damp=F
 DIIS: error= 1.84D-05 at cycle   1 NSaved=   1.
 NSaved= 1 IEnMin= 1 EnMin= -1029.72357999539     IErMin= 1 ErrMin= 1.84D-05
 ErrMax= 1.84D-05  0.00D+00 EMaxC= 1.00D-01 BMatC= 4.09D-07 BMatP= 4.09D-07
 IDIUse=1 WtCom= 1.00D+00 WtEn= 0.00D+00
 Coeff-Com:  0.100D+01
 Coeff:      0.100D+01
 Gap=     0.192 Goal=   None    Shift=    0.000
 RMSDP=4.21D-06 MaxDP=1.33D-04 DE=-9.19D-05 OVMax= 2.19D-04

 Cycle  10  Pass 1  IDiag  1:
 E= -1029.72358030784     Delta-E=       -0.000000312449 Rises=F Damp=F
 DIIS: error= 2.19D-05 at cycle   2 NSaved=   2.
 NSaved= 2 IEnMin= 2 EnMin= -1029.72358030784     IErMin= 1 ErrMin= 1.84D-05
 ErrMax= 2.19D-05  0.00D+00 EMaxC= 1.00D-01 BMatC= 1.93D-07 BMatP= 4.09D-07
 IDIUse=1 WtCom= 1.00D+00 WtEn= 0.00D+00
 Coeff-Com:  0.364D+00 0.636D+00
 Coeff:      0.364D+00 0.636D+00
 Gap=     0.192 Goal=   None    Shift=    0.000
 RMSDP=2.78D-06 MaxDP=8.93D-05 DE=-3.12D-07 OVMax= 2.47D-04

 Cycle  11  Pass 1  IDiag  1:
 E= -1029.72358036841     Delta-E=       -0.000000060576 Rises=F Damp=F
 DIIS: error= 1.85D-05 at cycle   3 NSaved=   3.
 NSaved= 3 IEnMin= 3 EnMin= -1029.72358036841     IErMin= 1 ErrMin= 1.84D-05
 ErrMax= 1.85D-05  0.00D+00 EMaxC= 1.00D-01 BMatC= 1.33D-07 BMatP= 1.93D-07
 IDIUse=1 WtCom= 1.00D+00 WtEn= 0.00D+00
 Coeff-Com:  0.484D-02 0.452D+00 0.543D+00
 Coeff:      0.484D-02 0.452D+00 0.543D+00
 Gap=     0.192 Goal=   None    Shift=    0.000
 RMSDP=1.47D-06 MaxDP=4.43D-05 DE=-6.06D-08 OVMax= 1.19D-04

 Cycle  12  Pass 1  IDiag  1:
 E= -1029.72358049686     Delta-E=       -0.000000128447 Rises=F Damp=F
 DIIS: error= 4.13D-06 at cycle   4 NSaved=   4.
 NSaved= 4 IEnMin= 4 EnMin= -1029.72358049686     IErMin= 4 ErrMin= 4.13D-06
 ErrMax= 4.13D-06  0.00D+00 EMaxC= 1.00D-01 BMatC= 5.77D-09 BMatP= 1.33D-07
 IDIUse=1 WtCom= 1.00D+00 WtEn= 0.00D+00
 Coeff-Com: -0.117D-01 0.242D+00 0.319D+00 0.450D+00
 Coeff:     -0.117D-01 0.242D+00 0.319D+00 0.450D+00
 Gap=     0.192 Goal=   None    Shift=    0.000
 RMSDP=2.92D-07 MaxDP=1.41D-05 DE=-1.28D-07 OVMax= 2.18D-05

 Cycle  13  Pass 1  IDiag  1:
 E= -1029.72358050144     Delta-E=       -0.000000004575 Rises=F Damp=F
 DIIS: error= 1.28D-06 at cycle   5 NSaved=   5.
 NSaved= 5 IEnMin= 5 EnMin= -1029.72358050144     IErMin= 5 ErrMin= 1.28D-06
 ErrMax= 1.28D-06  0.00D+00 EMaxC= 1.00D-01 BMatC= 5.17D-10 BMatP= 5.77D-09
 IDIUse=1 WtCom= 1.00D+00 WtEn= 0.00D+00
 Coeff-Com: -0.738D-02 0.739D-01 0.104D+00 0.257D+00 0.572D+00
 Coeff:     -0.738D-02 0.739D-01 0.104D+00 0.257D+00 0.572D+00
 Gap=     0.192 Goal=   None    Shift=    0.000
 RMSDP=9.16D-08 MaxDP=5.03D-06 DE=-4.57D-09 OVMax= 7.03D-06

 Cycle  14  Pass 1  IDiag  1:
 E= -1029.72358050184     Delta-E=       -0.000000000399 Rises=F Damp=F
 DIIS: error= 3.82D-07 at cycle   6 NSaved=   6.
 NSaved= 6 IEnMin= 6 EnMin= -1029.72358050184     IErMin= 6 ErrMin= 3.82D-07
 ErrMax= 3.82D-07  0.00D+00 EMaxC= 1.00D-01 BMatC= 8.32D-11 BMatP= 5.17D-10
 IDIUse=1 WtCom= 1.00D+00 WtEn= 0.00D+00
 Coeff-Com: -0.322D-02 0.180D-01 0.280D-01 0.107D+00 0.345D+00 0.505D+00
 Coeff:     -0.322D-02 0.180D-01 0.280D-01 0.107D+00 0.345D+00 0.505D+00
 Gap=     0.192 Goal=   None    Shift=    0.000
 RMSDP=4.08D-08 MaxDP=1.36D-06 DE=-3.99D-10 OVMax= 2.50D-06

 Cycle  15  Pass 1  IDiag  1:
 E= -1029.72358050185     Delta-E=       -0.000000000016 Rises=F Damp=F
 DIIS: error= 1.10D-07 at cycle   7 NSaved=   7.
 NSaved= 7 IEnMin= 7 EnMin= -1029.72358050185     IErMin= 7 ErrMin= 1.10D-07
 ErrMax= 1.10D-07  0.00D+00 EMaxC= 1.00D-01 BMatC= 8.41D-12 BMatP= 8.32D-11
 IDIUse=1 WtCom= 1.00D+00 WtEn= 0.00D+00
 Coeff-Com: -0.485D-03-0.249D-02-0.209D-02 0.146D-01 0.873D-01 0.275D+00
 Coeff-Com:  0.628D+00
 Coeff:     -0.485D-03-0.249D-02-0.209D-02 0.146D-01 0.873D-01 0.275D+00
 Coeff:      0.628D+00
 Gap=     0.192 Goal=   None    Shift=    0.000
 RMSDP=1.21D-08 MaxDP=4.85D-07 DE=-1.64D-11 OVMax= 7.82D-07

 Cycle  16  Pass 1  IDiag  1:
 E= -1029.72358050189     Delta-E=       -0.000000000038 Rises=F Damp=F
 DIIS: error= 2.61D-08 at cycle   8 NSaved=   8.
 NSaved= 8 IEnMin= 8 EnMin= -1029.72358050189     IErMin= 8 ErrMin= 2.61D-08
 ErrMax= 2.61D-08  0.00D+00 EMaxC= 1.00D-01 BMatC= 5.72D-13 BMatP= 8.41D-12
 IDIUse=1 WtCom= 1.00D+00 WtEn= 0.00D+00
 Coeff-Com:  0.764D-04-0.284D-02-0.353D-02-0.410D-02 0.526D-02 0.765D-01
 Coeff-Com:  0.280D+00 0.648D+00
 Coeff:      0.764D-04-0.284D-02-0.353D-02-0.410D-02 0.526D-02 0.765D-01
 Coeff:      0.280D+00 0.648D+00
 Gap=     0.192 Goal=   None    Shift=    0.000
 RMSDP=3.43D-09 MaxDP=1.22D-07 DE=-3.77D-11 OVMax= 1.79D-07

 SCF Done:  E(RM06) =  -1029.72358050     A.U. after   16 cycles
            NFock= 16  Conv=0.34D-08     -V/T= 2.0025
 KE= 1.027167410824D+03 PE=-4.708074607807D+03 EE= 1.507255582530D+03
 Leave Link  502 at Fri Sep  5 00:10:32 2014, MaxMem=  2147483648 cpu:       616.7
 (Enter /home/ik1r11/g09/l601.exe)
 Copying SCF densities to generalized density rwf, IOpCl= 0 IROHF=0.

 **********************************************************************

            Population analysis using the SCF density.

 **********************************************************************

 Orbital symmetries:
       Occupied  (A) (A) (A) (A) (A) (A) (A) (A) (A) (A) (A) (A)
                 (A) (A) (A) (A) (A) (A) (A) (A) (A) (A) (A) (A)
                 (A) (A) (A) (A) (A) (A) (A) (A) (A) (A) (A) (A)
                 (A) (A) (A) (A) (A) (A) (A) (A) (A) (A) (A) (A)
                 (A) (A) (A) (A) (A) (A) (A) (A) (A) (A) (A)
       Virtual   (A) (A) (A) (A) (A) (A) (A) (A) (A) (A) (A) (A)
                 (A) (A) (A) (A) (A) (A) (A) (A) (A) (A) (A) (A)
                 (A) (A) (A) (A) (A) (A) (A) (A) (A) (A) (A) (A)
                 (A) (A) (A) (A) (A) (A) (A) (A) (A) (A) (A) (A)
                 (A) (A) (A) (A) (A) (A) (A) (A) (A) (A) (A) (A)
                 (A) (A) (A) (A) (A) (A) (A) (A) (A) (A) (A) (A)
                 (A) (A) (A) (A) (A) (A) (A) (A) (A) (A) (A) (A)
                 (A) (A) (A) (A) (A) (A) (A) (A) (A) (A) (A) (A)
                 (A) (A) (A) (A) (A) (A) (A) (A) (A) (A) (A) (A)
                 (A) (A) (A) (A) (A) (A) (A) (A) (A) (A) (A) (A)
                 (A) (A) (A) (A) (A) (A) (A) (A) (A) (A) (A) (A)
                 (A) (A) (A) (A) (A) (A) (A) (A) (A) (A) (A) (A)
                 (A) (A) (A) (A) (A) (A) (A) (A) (A) (A) (A) (A)
                 (A) (A) (A) (A) (A) (A) (A) (A) (A) (A) (A) (A)
                 (A) (A) (A) (A) (A) (A) (A) (A) (A) (A) (A) (A)
                 (A) (A) (A) (A) (A) (A) (A) (A) (A) (A) (A) (A)
                 (A) (A) (A) (A) (A) (A) (A) (A) (A) (A) (A) (A)
                 (A) (A) (A) (A) (A) (A) (A) (A) (A) (A) (A) (A)
                 (A) (A) (A) (A)
 The electronic state is 1-A.
 Alpha  occ. eigenvalues --  -88.99538 -19.28958 -19.20284 -14.40491 -10.39472
 Alpha  occ. eigenvalues --  -10.31122 -10.30630 -10.29116 -10.26059 -10.25803
 Alpha  occ. eigenvalues --  -10.25617 -10.25584 -10.25501 -10.25126 -10.25069
 Alpha  occ. eigenvalues --   -8.03134  -5.94801  -5.94207  -5.93492  -1.14832
 Alpha  occ. eigenvalues --   -1.03484  -1.00055  -0.87197  -0.86786  -0.81527
 Alpha  occ. eigenvalues --   -0.77532  -0.75479  -0.74571  -0.68436  -0.62467
 Alpha  occ. eigenvalues --   -0.61082  -0.60576  -0.57968  -0.56772  -0.54084
 Alpha  occ. eigenvalues --   -0.51916  -0.50914  -0.49888  -0.49363  -0.47139
 Alpha  occ. eigenvalues --   -0.46317  -0.45280  -0.44279  -0.42718  -0.42407
 Alpha  occ. eigenvalues --   -0.41929  -0.41328  -0.39958  -0.37241  -0.36263
 Alpha  occ. eigenvalues --   -0.35855  -0.34926  -0.32027  -0.30811  -0.27890
 Alpha  occ. eigenvalues --   -0.26815  -0.26458  -0.25713  -0.20042
 Alpha virt. eigenvalues --   -0.00848  -0.00255   0.00169   0.05698   0.07171
 Alpha virt. eigenvalues --    0.07766   0.08575   0.09722   0.10757   0.10910
 Alpha virt. eigenvalues --    0.12062   0.12114   0.12774   0.13097   0.13951
 Alpha virt. eigenvalues --    0.13993   0.15424   0.15714   0.16353   0.16905
 Alpha virt. eigenvalues --    0.20589   0.21770   0.23622   0.25970   0.26935
 Alpha virt. eigenvalues --    0.28143   0.28599   0.30211   0.31551   0.32378
 Alpha virt. eigenvalues --    0.34807   0.37231   0.39543   0.40746   0.41445
 Alpha virt. eigenvalues --    0.42598   0.43236   0.44984   0.45265   0.46092
 Alpha virt. eigenvalues --    0.47330   0.47404   0.48059   0.49546   0.50197
 Alpha virt. eigenvalues --    0.50385   0.50950   0.52147   0.52819   0.53341
 Alpha virt. eigenvalues --    0.53549   0.54591   0.55185   0.56837   0.58152
 Alpha virt. eigenvalues --    0.58707   0.59091   0.59552   0.59972   0.61207
 Alpha virt. eigenvalues --    0.61633   0.61945   0.62255   0.63122   0.63306
 Alpha virt. eigenvalues --    0.64811   0.65300   0.66385   0.67610   0.68004
 Alpha virt. eigenvalues --    0.68785   0.70201   0.71304   0.72576   0.74348
 Alpha virt. eigenvalues --    0.75265   0.75834   0.77840   0.82376   0.84178
 Alpha virt. eigenvalues --    0.85140   0.87103   0.88315   0.89593   0.90725
 Alpha virt. eigenvalues --    0.90889   0.92313   0.94309   0.95342   0.97120
 Alpha virt. eigenvalues --    0.98458   0.99845   1.00124   1.01449   1.02160
 Alpha virt. eigenvalues --    1.02628   1.03595   1.05086   1.05755   1.06405
 Alpha virt. eigenvalues --    1.08954   1.11174   1.12808   1.13580   1.14283
 Alpha virt. eigenvalues --    1.15139   1.17481   1.18865   1.22793   1.23736
 Alpha virt. eigenvalues --    1.24969   1.27181   1.27902   1.30311   1.32766
 Alpha virt. eigenvalues --    1.34412   1.36480   1.37602   1.38489   1.39818
 Alpha virt. eigenvalues --    1.41600   1.44750   1.46358   1.47643   1.48315
 Alpha virt. eigenvalues --    1.49903   1.50771   1.52268   1.53927   1.55722
 Alpha virt. eigenvalues --    1.56881   1.57311   1.58574   1.59015   1.59262
 Alpha virt. eigenvalues --    1.60705   1.61313   1.62557   1.64234   1.64703
 Alpha virt. eigenvalues --    1.65444   1.66576   1.67055   1.67323   1.69224
 Alpha virt. eigenvalues --    1.70448   1.71093   1.73850   1.74593   1.75782
 Alpha virt. eigenvalues --    1.76588   1.78155   1.79035   1.79273   1.80663
 Alpha virt. eigenvalues --    1.81933   1.83475   1.84205   1.85097   1.86595
 Alpha virt. eigenvalues --    1.87778   1.88479   1.91265   1.92520   1.94395
 Alpha virt. eigenvalues --    1.95903   1.96772   1.97718   1.98592   2.00621
 Alpha virt. eigenvalues --    2.01174   2.02247   2.04060   2.05745   2.07072
 Alpha virt. eigenvalues --    2.08054   2.12355   2.13338   2.15823   2.17671
 Alpha virt. eigenvalues --    2.19579   2.21336   2.23610   2.24349   2.26364
 Alpha virt. eigenvalues --    2.30270   2.32964   2.33543   2.37642   2.38489
 Alpha virt. eigenvalues --    2.39826   2.39892   2.41607   2.44001   2.44952
 Alpha virt. eigenvalues --    2.46021   2.49544   2.54018   2.58695   2.60607
 Alpha virt. eigenvalues --    2.63334   2.65202   2.65681   2.67107   2.68459
 Alpha virt. eigenvalues --    2.72635   2.74313   2.77083   2.80304   2.82517
 Alpha virt. eigenvalues --    2.86464   2.92125   2.92724   3.01519   3.12226
 Alpha virt. eigenvalues --    3.15038   3.33500   3.38531   3.44250   3.48794
          Condensed to atoms (all electrons):
               1          2          3          4          5          6
     1  C    4.913018  -0.072040  -0.097404  -0.005870   0.009271  -0.020528
     2  C   -0.072040   4.662217   0.400769   0.364176   0.367601  -0.032532
     3  C   -0.097404   0.400769   5.044572  -0.021332  -0.004804   0.349862
     4  H   -0.005870   0.364176  -0.021332   0.765366  -0.060820   0.012076
     5  H    0.009271   0.367601  -0.004804  -0.060820   0.685088  -0.006601
     6  H   -0.020528  -0.032532   0.349862   0.012076  -0.006601   0.680974
     7  S    0.345212   0.387666  -0.092595  -0.096477  -0.054866  -0.009641
     8  N    0.424076  -0.084451   0.358533  -0.000942   0.008311  -0.033233
     9  H   -0.017512   0.002275  -0.045140   0.003384   0.000703   0.008167
    10  C    0.006966  -0.037421   0.286963  -0.001467  -0.002556  -0.028758
    11  O    0.000212  -0.004051  -0.067647   0.004911  -0.000097   0.003745
    12  O   -0.000024   0.000828  -0.046460  -0.000171   0.001455   0.007796
    13  C    0.000007  -0.000133   0.006839  -0.000039  -0.000043  -0.000815
    14  H    0.000000   0.000032  -0.000214  -0.000011   0.000000  -0.000091
    15  H    0.000000  -0.000005  -0.000178  -0.000001   0.000009  -0.000022
    16  H    0.000001  -0.000108   0.002656   0.000002  -0.000004   0.000118
    17  C    0.336425  -0.002617  -0.046258  -0.002688   0.003437   0.017376
    18  C   -0.091521  -0.001399  -0.001878  -0.000114   0.000854   0.001316
    19  C   -0.089522   0.002391  -0.007777  -0.000113  -0.000258  -0.003672
    20  C    0.008379  -0.000084   0.000307   0.000002   0.000049  -0.000390
    21  H   -0.026768  -0.001512  -0.000250   0.000237  -0.000408   0.000714
    22  C    0.008541   0.000059  -0.000207  -0.000007  -0.000001  -0.002419
    23  H   -0.016367   0.000391   0.000215   0.000003  -0.000044  -0.001126
    24  C    0.000014   0.000002   0.000133   0.000000   0.000005   0.000182
    25  H   -0.000327   0.000001  -0.000008   0.000000  -0.000004   0.000012
    26  H   -0.000325  -0.000001   0.000011   0.000000   0.000000   0.000064
    27  H    0.000042   0.000000   0.000002   0.000000   0.000000   0.000008
    28  H    0.363958   0.003937   0.009118   0.002707  -0.000907   0.002240
               7          8          9         10         11         12
     1  C    0.345212   0.424076  -0.017512   0.006966   0.000212  -0.000024
     2  C    0.387666  -0.084451   0.002275  -0.037421  -0.004051   0.000828
     3  C   -0.092595   0.358533  -0.045140   0.286963  -0.067647  -0.046460
     4  H   -0.096477  -0.000942   0.003384  -0.001467   0.004911  -0.000171
     5  H   -0.054866   0.008311   0.000703  -0.002556  -0.000097   0.001455
     6  H   -0.009641  -0.033233   0.008167  -0.028758   0.003745   0.007796
     7  S   15.894707  -0.106990  -0.001744   0.005887  -0.000352  -0.000026
     8  N   -0.106990   6.317942   0.357935  -0.030930  -0.002199   0.000532
     9  H   -0.001744   0.357935   0.579465  -0.004947   0.014644   0.000363
    10  C    0.005887  -0.030930  -0.004947   4.547830   0.642634   0.394263
    11  O   -0.000352  -0.002199   0.014644   0.642634   7.830655  -0.069507
    12  O   -0.000026   0.000532   0.000363   0.394263  -0.069507   7.751103
    13  C    0.000017  -0.000057  -0.000014  -0.051258  -0.012140   0.299320
    14  H   -0.000002   0.000001  -0.000001   0.002394   0.000922  -0.017375
    15  H    0.000001   0.000011   0.000001   0.000267   0.000514  -0.024621
    16  H    0.000006  -0.000002  -0.000048  -0.001841   0.026230  -0.031598
    17  C   -0.169426  -0.085324   0.007842  -0.000188  -0.000041  -0.000019
    18  C   -0.050905   0.005600  -0.000457  -0.000071   0.000000   0.000000
    19  C    0.020758   0.005893  -0.000313   0.000085  -0.000018  -0.000010
    20  C   -0.000926  -0.000045   0.000009   0.000005   0.000000   0.000000
    21  H    0.025377   0.000666  -0.000042  -0.000030   0.000000   0.000000
    22  C   -0.000948   0.000779  -0.000011  -0.000012   0.000000   0.000001
    23  H    0.002125   0.021483  -0.000886  -0.000046   0.000001  -0.000005
    24  C   -0.000225  -0.000001   0.000003  -0.000004   0.000000   0.000000
    25  H    0.000202   0.000002   0.000000   0.000000   0.000000   0.000000
    26  H    0.000029  -0.000026  -0.000002   0.000000   0.000000   0.000000
    27  H    0.000004   0.000000   0.000000   0.000000   0.000000   0.000000
    28  H   -0.055137  -0.008385  -0.007543  -0.000327   0.000004   0.000002
              13         14         15         16         17         18
     1  C    0.000007   0.000000   0.000000   0.000001   0.336425  -0.091521
     2  C   -0.000133   0.000032  -0.000005  -0.000108  -0.002617  -0.001399
     3  C    0.006839  -0.000214  -0.000178   0.002656  -0.046258  -0.001878
     4  H   -0.000039  -0.000011  -0.000001   0.000002  -0.002688  -0.000114
     5  H   -0.000043   0.000000   0.000009  -0.000004   0.003437   0.000854
     6  H   -0.000815  -0.000091  -0.000022   0.000118   0.017376   0.001316
     7  S    0.000017  -0.000002   0.000001   0.000006  -0.169426  -0.050905
     8  N   -0.000057   0.000001   0.000011  -0.000002  -0.085324   0.005600
     9  H   -0.000014  -0.000001   0.000001  -0.000048   0.007842  -0.000457
    10  C   -0.051258   0.002394   0.000267  -0.001841  -0.000188  -0.000071
    11  O   -0.012140   0.000922   0.000514   0.026230  -0.000041   0.000000
    12  O    0.299320  -0.017375  -0.024621  -0.031598  -0.000019   0.000000
    13  C    4.454325   0.398458   0.406567   0.390445   0.000001   0.000000
    14  H    0.398458   0.620491  -0.031527  -0.025523   0.000000   0.000000
    15  H    0.406567  -0.031527   0.617480  -0.029373   0.000000   0.000000
    16  H    0.390445  -0.025523  -0.029373   0.607205   0.000000   0.000000
    17  C    0.000001   0.000000   0.000000   0.000000   5.319030   0.496024
    18  C    0.000000   0.000000   0.000000   0.000000   0.496024   4.873971
    19  C    0.000001   0.000000   0.000000   0.000000   0.437010  -0.022878
    20  C    0.000000   0.000000   0.000000   0.000000   0.001682   0.486689
    21  H    0.000000   0.000000   0.000000   0.000000  -0.045604   0.391937
    22  C    0.000000   0.000000   0.000000   0.000000   0.001742  -0.077179
    23  H    0.000000   0.000000   0.000000   0.000000  -0.055053   0.010840
    24  C    0.000000   0.000000   0.000000   0.000000  -0.079474  -0.002742
    25  H    0.000000   0.000000   0.000000   0.000000   0.009777  -0.042280
    26  H    0.000000   0.000000   0.000000   0.000000   0.009648   0.000275
    27  H    0.000000   0.000000   0.000000   0.000000   0.000016   0.009666
    28  H    0.000000   0.000000   0.000000   0.000000  -0.025864  -0.001731
              19         20         21         22         23         24
     1  C   -0.089522   0.008379  -0.026768   0.008541  -0.016367   0.000014
     2  C    0.002391  -0.000084  -0.001512   0.000059   0.000391   0.000002
     3  C   -0.007777   0.000307  -0.000250  -0.000207   0.000215   0.000133
     4  H   -0.000113   0.000002   0.000237  -0.000007   0.000003   0.000000
     5  H   -0.000258   0.000049  -0.000408  -0.000001  -0.000044   0.000005
     6  H   -0.003672  -0.000390   0.000714  -0.002419  -0.001126   0.000182
     7  S    0.020758  -0.000926   0.025377  -0.000948   0.002125  -0.000225
     8  N    0.005893  -0.000045   0.000666   0.000779   0.021483  -0.000001
     9  H   -0.000313   0.000009  -0.000042  -0.000011  -0.000886   0.000003
    10  C    0.000085   0.000005  -0.000030  -0.000012  -0.000046  -0.000004
    11  O   -0.000018   0.000000   0.000000   0.000000   0.000001   0.000000
    12  O   -0.000010   0.000000   0.000000   0.000001  -0.000005   0.000000
    13  C    0.000001   0.000000   0.000000   0.000000   0.000000   0.000000
    14  H    0.000000   0.000000   0.000000   0.000000   0.000000   0.000000
    15  H    0.000000   0.000000   0.000000   0.000000   0.000000   0.000000
    16  H    0.000000   0.000000   0.000000   0.000000   0.000000   0.000000
    17  C    0.437010   0.001682  -0.045604   0.001742  -0.055053  -0.079474
    18  C   -0.022878   0.486689   0.391937  -0.077179   0.010840  -0.002742
    19  C    4.876945  -0.077264   0.010800   0.472999   0.395892  -0.001828
    20  C   -0.077264   4.779810  -0.048038   0.006195  -0.000846   0.490962
    21  H    0.010800  -0.048038   0.694753  -0.000837  -0.000186   0.009675
    22  C    0.472999   0.006195  -0.000837   4.797230  -0.047279   0.488538
    23  H    0.395892  -0.000846  -0.000186  -0.047279   0.695325   0.009847
    24  C   -0.001828   0.490962   0.009675   0.488538   0.009847   4.799707
    25  H    0.000297   0.388360  -0.014726   0.008820   0.000068  -0.052273
    26  H   -0.044673   0.009129   0.000069   0.388663  -0.014185  -0.051120
    27  H    0.009487  -0.047838  -0.000243  -0.049207  -0.000234   0.391611
    28  H   -0.003400  -0.000226   0.000762  -0.000339   0.000631   0.000032
              25         26         27         28
     1  C   -0.000327  -0.000325   0.000042   0.363958
     2  C    0.000001  -0.000001   0.000000   0.003937
     3  C   -0.000008   0.000011   0.000002   0.009118
     4  H    0.000000   0.000000   0.000000   0.002707
     5  H   -0.000004   0.000000   0.000000  -0.000907
     6  H    0.000012   0.000064   0.000008   0.002240
     7  S    0.000202   0.000029   0.000004  -0.055137
     8  N    0.000002  -0.000026   0.000000  -0.008385
     9  H    0.000000  -0.000002   0.000000  -0.007543
    10  C    0.000000   0.000000   0.000000  -0.000327
    11  O    0.000000   0.000000   0.000000   0.000004
    12  O    0.000000   0.000000   0.000000   0.000002
    13  C    0.000000   0.000000   0.000000   0.000000
    14  H    0.000000   0.000000   0.000000   0.000000
    15  H    0.000000   0.000000   0.000000   0.000000
    16  H    0.000000   0.000000   0.000000   0.000000
    17  C    0.009777   0.009648   0.000016  -0.025864
    18  C   -0.042280   0.000275   0.009666  -0.001731
    19  C    0.000297  -0.044673   0.009487  -0.003400
    20  C    0.388360   0.009129  -0.047838  -0.000226
    21  H   -0.014726   0.000069  -0.000243   0.000762
    22  C    0.008820   0.388663  -0.049207  -0.000339
    23  H    0.000068  -0.014185  -0.000234   0.000631
    24  C   -0.052273  -0.051120   0.391611   0.000032
    25  H    0.711217  -0.000266  -0.014466   0.000013
    26  H   -0.000266   0.710502  -0.014484   0.000013
    27  H   -0.014466  -0.014484   0.712382   0.000000
    28  H    0.000013   0.000013   0.000000   0.672842
 Mulliken charges:
               1
     1  C    0.022086
     2  C    0.044006
     3  C   -0.027828
     4  H    0.037188
     5  H    0.054629
     6  H    0.055179
     7  S   -0.041733
     8  N   -0.149179
     9  H    0.103872
    10  C    0.272563
    11  O   -0.368419
    12  O   -0.265848
    13  C    0.108517
    14  H    0.052447
    15  H    0.060878
    16  H    0.061834
    17  C   -0.127457
    18  C    0.015983
    19  C    0.019168
    20  C    0.004077
    21  H    0.003655
    22  C    0.004878
    23  H   -0.000565
    24  C   -0.003043
    25  H    0.005581
    26  H    0.006679
    27  H    0.003253
    28  H    0.047602
 Sum of Mulliken charges =   0.00000
 Mulliken charges with hydrogens summed into heavy atoms:
               1
     1  C    0.069688
     2  C    0.135822
     3  C    0.027351
     7  S   -0.041733
     8  N   -0.045308
    10  C    0.272563
    11  O   -0.368419
    12  O   -0.265848
    13  C    0.283676
    17  C   -0.127457
    18  C    0.019638
    19  C    0.018602
    20  C    0.009658
    22  C    0.011557
    24  C    0.000210
 Electronic spatial extent (au):  <R**2>=           3671.2431
 Charge=              0.0000 electrons
 Dipole moment (field-independent basis, Debye):
    X=             -0.6590    Y=             -1.1461    Z=             -1.8507  Tot=              2.2744
 Quadrupole moment (field-independent basis, Debye-Ang):
   XX=            -90.7320   YY=            -89.3170   ZZ=            -93.9380
   XY=              2.8251   XZ=              6.7384   YZ=              2.1750
 Traceless Quadrupole moment (field-independent basis, Debye-Ang):
   XX=              0.5970   YY=              2.0120   ZZ=             -2.6090
   XY=              2.8251   XZ=              6.7384   YZ=              2.1750
 Octapole moment (field-independent basis, Debye-Ang**2):
  XXX=            -61.2609  YYY=            -21.2062  ZZZ=             -4.9408  XYY=            -23.4597
  XXY=            -36.5815  XXZ=            -42.3952  XZZ=             -3.3869  YZZ=              4.6891
  YYZ=             10.9946  XYZ=             -3.3806
 Hexadecapole moment (field-independent basis, Debye-Ang**3):
 XXXX=          -3021.7192 YYYY=          -1194.4069 ZZZZ=           -497.7774 XXXY=            130.2616
 XXXZ=             65.6694 YYYX=             24.8204 YYYZ=             18.1717 ZZZX=              6.9407
 ZZZY=              9.4593 XXYY=           -612.6905 XXZZ=           -605.3346 YYZZ=           -262.5862
 XXYZ=             34.7873 YYXZ=             17.1836 ZZXY=              7.2786
 N-N= 1.143928033952D+03 E-N=-4.708074594269D+03  KE= 1.027167410824D+03
 No NMR shielding tensors so no spin-rotation constants.
 Leave Link  601 at Fri Sep  5 00:10:33 2014, MaxMem=  2147483648 cpu:         3.5
 (Enter /home/ik1r11/g09/l701.exe)
 Compute integral first derivatives.
 ... and contract with generalized density number  0.
 Leave Link  701 at Fri Sep  5 00:10:34 2014, MaxMem=  2147483648 cpu:         4.0
 (Enter /home/ik1r11/g09/l702.exe)
 L702 exits ... SP integral derivatives will be done elsewhere.
 Leave Link  702 at Fri Sep  5 00:10:34 2014, MaxMem=  2147483648 cpu:         0.2
 (Enter /home/ik1r11/g09/l703.exe)
 Compute integral first derivatives, UseDBF=F ICtDFT=           0.
 Integral derivatives from FoFJK, PRISM(SPDF).
 Calling FoFJK, ICntrl=      2127 FMM=F ISym2X=0 I1Cent= 0 IOpClX= 0 NMat=1 NMatS=1 NMatT=0.
 FoFJK:  IHMeth= 1 ICntrl=    2127 DoSepK=F KAlg= 0 I1Cent=   0 FoldK=F
 IRaf=         0 NMat=   1 IRICut=       1 DoRegI=T DoRafI=F ISym2E= 0.
 FoFCou: FMM=F IPFlag=           0 FMFlag=      100000 FMFlg1=         800
         NFxFlg=           0 DoJE=F BraDBF=F KetDBF=F FulRan=T
         wScrn=  0.000000 ICntrl=    2127 IOpCl=  0 I1Cent=           0 NGrid=           0
         NMat0=    1 NMatS0=      1 NMatT0=    0 NMatD0=    1 NMtDS0=    0 NMtDT0=    0
 Symmetry not used in FoFCou.
 Leave Link  703 at Fri Sep  5 00:10:41 2014, MaxMem=  2147483648 cpu:       113.3
 (Enter /home/ik1r11/g09/l716.exe)
 Dipole        =-2.59282914D-01-4.50895808D-01-7.28110935D-01
 ***** Axes restored to original set *****
 -------------------------------------------------------------------
 Center     Atomic                   Forces (Hartrees/Bohr)
 Number     Number              X              Y              Z
 -------------------------------------------------------------------
      1        6           0.082543194   -0.285345309    0.068786388
      2        6          -0.331361499   -0.031261974   -0.006234020
      3        6          -0.065750563   -0.003394495    0.029345446
      4        1          -0.032688767    0.007664579    0.019439160
      5        1          -0.016682182    0.009597176   -0.015680780
      6        1           0.004862209   -0.007256283   -0.017934853
      7       16           0.275529190    0.389969698   -0.097639931
      8        7           0.013339509   -0.053748924   -0.020246767
      9        1          -0.007490410    0.008702195    0.014394889
     10        6          -0.016298714   -0.019420822    0.137503177
     11        8           0.035776804    0.019726301   -0.095200285
     12        8           0.004318144    0.006234023   -0.036421006
     13        6           0.017291252    0.007088671    0.006518544
     14        1          -0.005732700    0.008801044   -0.017265778
     15        1          -0.000157226   -0.020809639    0.000598057
     16        1          -0.004489924    0.005336618    0.018748164
     17        6           0.018349725   -0.018589951    0.004653161
     18        6           0.006106378   -0.004033495   -0.006358532
     19        6           0.006039319   -0.007600334   -0.002050520
     20        6           0.001248345   -0.002316947   -0.001119948
     21        1          -0.000157998   -0.006737270   -0.000994600
     22        6          -0.000896887   -0.001352702    0.000413410
     23        1           0.000611951    0.003852523   -0.002997037
     24        6           0.000618440   -0.001234163   -0.004291537
     25        1          -0.000940911   -0.001776189    0.003732482
     26        1          -0.000073820    0.004065728   -0.000198377
     27        1          -0.001208457    0.002151023    0.003238550
     28        1           0.017295595   -0.008311080    0.017262542
 -------------------------------------------------------------------
 Cartesian Forces:  Max     0.389969698 RMS     0.076209013
 Leave Link  716 at Fri Sep  5 00:10:41 2014, MaxMem=  2147483648 cpu:         0.6
 (Enter /home/ik1r11/g09/l103.exe)

 GradGradGradGradGradGradGradGradGradGradGradGradGradGradGradGradGradGrad
 Berny optimization.
 FormGI is forming the generalized inverse of G from B-inverse, IUseBI=4.
 Internal  Forces:  Max     0.359155746 RMS     0.045296225
 Search for a local minimum.
 Step number   1 out of a maximum of  157
 All quantities printed in internal units (Hartrees-Bohrs-Radians)
 RMS Force = .45296D-01 SwitMx=.10000D-02 MixMth= 1
 Mixed Optimization -- RFO/linear search
 Second derivative matrix not updated -- first step.
 ITU=  0
     Eigenvalues ---    0.00237   0.00237   0.00927   0.01295   0.01336
     Eigenvalues ---    0.01388   0.02152   0.02153   0.02154   0.02155
     Eigenvalues ---    0.02155   0.02155   0.02156   0.02157   0.02168
     Eigenvalues ---    0.02997   0.03850   0.04972   0.05110   0.05259
     Eigenvalues ---    0.05980   0.06266   0.07251   0.07507   0.08468
     Eigenvalues ---    0.09253   0.10344   0.10344   0.11426   0.12165
     Eigenvalues ---    0.13299   0.16000   0.16000   0.16000   0.16000
     Eigenvalues ---    0.16000   0.16000   0.16000   0.16000   0.16456
     Eigenvalues ---    0.18276   0.20265   0.22000   0.22000   0.23486
     Eigenvalues ---    0.25000   0.25000   0.25000   0.25000   0.28519
     Eigenvalues ---    0.28519   0.29335   0.33416   0.33709   0.33718
     Eigenvalues ---    0.33718   0.33720   0.33726   0.36455   0.37230
     Eigenvalues ---    0.37230   0.37230   0.37230   0.37230   0.37230
     Eigenvalues ---    0.37230   0.40989   0.42121   0.42300   0.46412
     Eigenvalues ---    0.46453   0.46466   0.46497   0.47688   0.66833
     Eigenvalues ---    0.66833   0.81562   0.89543
 RFO step:  Lambda=-2.85101803D-01 EMin= 2.36824097D-03
 Linear search not attempted -- first point.
 Maximum step size (   0.300) exceeded in Quadratic search.
    -- Step size scaled by   0.583
 Iteration  1 RMS(Cart)=  0.06916959 RMS(Int)=  0.00133793
 Iteration  2 RMS(Cart)=  0.00269570 RMS(Int)=  0.00022986
 Iteration  3 RMS(Cart)=  0.00000698 RMS(Int)=  0.00022985
 Iteration  4 RMS(Cart)=  0.00000000 RMS(Int)=  0.00022985
 ITry= 1 IFail=0 DXMaxC= 2.81D-01 DCOld= 1.00D+10 DXMaxT= 3.00D-01 DXLimC= 3.00D+00 Rises=F
 Variable       Old X    -DE/DX   Delta X   Delta X   Delta X     New X
                                 (Linear)    (Quad)   (Total)
    R1        2.77229   0.34172   0.00000   0.18203   0.18268   2.95497
    R2        2.77398   0.04192   0.00000   0.02717   0.02700   2.80098
    R3        2.91018   0.02985   0.00000   0.03054   0.03054   2.94071
    R4        2.02201   0.02368   0.00000   0.02101   0.02101   2.04302
    R5        2.85514   0.04993   0.00000   0.03419   0.03368   2.88882
    R6        2.02201   0.03091   0.00000   0.02743   0.02743   2.04944
    R7        2.02201   0.02395   0.00000   0.02126   0.02126   2.04326
    R8        2.73809   0.35916   0.00000   0.17836   0.17878   2.91687
    R9        2.02201   0.01991   0.00000   0.01767   0.01767   2.03967
   R10        2.73253   0.03856   0.00000   0.01635   0.01592   2.74845
   R11        2.91018  -0.02767   0.00000  -0.02830  -0.02830   2.88188
   R12        1.88973   0.01798   0.00000   0.01376   0.01376   1.90349
   R13        2.45910  -0.10321   0.00000  -0.06315  -0.06315   2.39595
   R14        2.45910   0.01229   0.00000   0.00752   0.00752   2.46662
   R15        2.70231  -0.00479   0.00000  -0.00402  -0.00402   2.69828
   R16        2.02201   0.01878   0.00000   0.01666   0.01666   2.03867
   R17        2.02201   0.02075   0.00000   0.01842   0.01842   2.04042
   R18        2.02201   0.01992   0.00000   0.01768   0.01768   2.03968
   R19        2.63647   0.00369   0.00000   0.00301   0.00302   2.63949
   R20        2.63584   0.00416   0.00000   0.00335   0.00335   2.63920
   R21        2.63562   0.00050   0.00000   0.00042   0.00042   2.63604
   R22        2.07805  -0.00671   0.00000  -0.00629  -0.00629   2.07176
   R23        2.63643  -0.00199   0.00000  -0.00157  -0.00157   2.63485
   R24        2.07795  -0.00448   0.00000  -0.00420  -0.00420   2.07376
   R25        2.63697  -0.00445   0.00000  -0.00358  -0.00358   2.63339
   R26        2.07809  -0.00422   0.00000  -0.00396  -0.00396   2.07414
   R27        2.63584  -0.00367   0.00000  -0.00300  -0.00300   2.63283
   R28        2.07825  -0.00406   0.00000  -0.00381  -0.00381   2.07444
   R29        2.07809  -0.00406   0.00000  -0.00381  -0.00381   2.07429
    A1        1.85476  -0.00521   0.00000  -0.00450  -0.00454   1.85022
    A2        1.89502   0.03371   0.00000   0.05157   0.05186   1.94688
    A3        1.95610   0.00139   0.00000  -0.00013  -0.00015   1.95595
    A4        1.87718  -0.01260   0.00000  -0.01041  -0.01075   1.86643
    A5        1.97413   0.00227   0.00000  -0.00622  -0.00659   1.96754
    A6        1.90343  -0.01806   0.00000  -0.02724  -0.02748   1.87595
    A7        1.88687  -0.01550   0.00000  -0.01905  -0.01895   1.86791
    A8        1.98896  -0.00028   0.00000  -0.00144  -0.00157   1.98739
    A9        1.81035   0.00840   0.00000   0.00628   0.00600   1.81635
   A10        1.89684  -0.00257   0.00000  -0.00654  -0.00674   1.89010
   A11        1.90061   0.00063   0.00000   0.00997   0.01011   1.91072
   A12        1.97615   0.00863   0.00000   0.01058   0.01063   1.98678
   A13        1.94915   0.00653   0.00000  -0.00060  -0.00076   1.94840
   A14        1.71872   0.04430   0.00000   0.02630   0.02579   1.74452
   A15        1.98186  -0.03645   0.00000  -0.01562  -0.01504   1.96682
   A16        1.93104  -0.01824   0.00000  -0.01247  -0.01237   1.91866
   A17        1.87995   0.01396   0.00000   0.01005   0.00989   1.88984
   A18        2.00132  -0.00976   0.00000  -0.00797  -0.00775   1.99357
   A19        1.79393  -0.10368   0.00000  -0.05014  -0.04872   1.74520
   A20        1.68614   0.06880   0.00000   0.03846   0.03771   1.72386
   A21        1.97574   0.00086   0.00000  -0.00199  -0.00173   1.97401
   A22        1.95811  -0.03751   0.00000  -0.03142  -0.03099   1.92712
   A23        2.09440   0.00414   0.00000   0.00451   0.00451   2.09890
   A24        2.09440  -0.02942   0.00000  -0.03208  -0.03208   2.06232
   A25        2.09440   0.02529   0.00000   0.02757   0.02756   2.12196
   A26        2.09440  -0.01450   0.00000  -0.01581  -0.01581   2.07859
   A27        1.91063  -0.01053   0.00000  -0.01389  -0.01390   1.89674
   A28        1.91063  -0.00071   0.00000  -0.00102  -0.00104   1.90960
   A29        1.91063   0.00283   0.00000   0.00388   0.00388   1.91452
   A30        1.91063   0.00336   0.00000   0.00406   0.00403   1.91467
   A31        1.91063   0.00500   0.00000   0.00673   0.00673   1.91737
   A32        1.91063   0.00006   0.00000   0.00024   0.00024   1.91087
   A33        2.09435   0.02145   0.00000   0.02325   0.02325   2.11759
   A34        2.09447  -0.01081   0.00000  -0.01191  -0.01192   2.08255
   A35        2.09437  -0.01064   0.00000  -0.01134  -0.01134   2.08303
   A36        2.09455   0.00334   0.00000   0.00400   0.00401   2.09856
   A37        2.09406  -0.00046   0.00000  -0.00041  -0.00042   2.09364
   A38        2.09458  -0.00288   0.00000  -0.00359  -0.00359   2.09099
   A39        2.09440   0.00609   0.00000   0.00704   0.00705   2.10144
   A40        2.09453  -0.00510   0.00000  -0.00622  -0.00622   2.08832
   A41        2.09426  -0.00099   0.00000  -0.00083  -0.00083   2.09343
   A42        2.09429   0.00284   0.00000   0.00305   0.00304   2.09734
   A43        2.09462  -0.00165   0.00000  -0.00183  -0.00183   2.09279
   A44        2.09427  -0.00119   0.00000  -0.00122  -0.00122   2.09306
   A45        2.09448   0.00091   0.00000   0.00069   0.00068   2.09516
   A46        2.09411  -0.00045   0.00000  -0.00034  -0.00033   2.09378
   A47        2.09459  -0.00046   0.00000  -0.00035  -0.00035   2.09424
   A48        2.09429  -0.00255   0.00000  -0.00344  -0.00345   2.09084
   A49        2.09407   0.00131   0.00000   0.00176   0.00176   2.09583
   A50        2.09483   0.00124   0.00000   0.00168   0.00168   2.09651
    D1       -0.30380   0.01100   0.00000   0.00462   0.00449  -0.29932
    D2        1.71099   0.01000   0.00000   0.01515   0.01518   1.72617
    D3       -2.46848   0.01087   0.00000   0.01554   0.01587  -2.45261
    D4        0.80332  -0.00468   0.00000  -0.00614  -0.00572   0.79760
    D5       -1.24924   0.00050   0.00000   0.00959   0.00981  -1.23944
    D6       -1.22352  -0.03493   0.00000  -0.05840  -0.05812  -1.28164
    D7        3.00710  -0.02975   0.00000  -0.04267  -0.04259   2.96451
    D8        2.95675  -0.00516   0.00000  -0.01339  -0.01316   2.94359
    D9        0.90418   0.00001   0.00000   0.00234   0.00237   0.90655
   D10        0.46499   0.00416   0.00000   0.00345   0.00326   0.46825
   D11       -2.67670   0.00205   0.00000  -0.00066  -0.00087  -2.67757
   D12        2.46518   0.00851   0.00000   0.01872   0.01863   2.48381
   D13       -0.67651   0.00640   0.00000   0.01461   0.01449  -0.66201
   D14       -1.67103  -0.00737   0.00000  -0.01167  -0.01136  -1.68239
   D15        1.47047  -0.00948   0.00000  -0.01578  -0.01549   1.45498
   D16        3.04337  -0.01620   0.00000  -0.02086  -0.02070   3.02266
   D17       -1.21036  -0.01165   0.00000  -0.02164  -0.02161  -1.23197
   D18        0.91346  -0.01256   0.00000  -0.02208  -0.02204   0.89141
   D19        0.93263  -0.00169   0.00000   0.00200   0.00201   0.93464
[...]
     7  S   15.804023  -0.072065   0.000116   0.003707  -0.000131   0.000041
     8  N   -0.072065   6.261370   0.341985  -0.029006  -0.003995   0.000844
     9  H    0.000116   0.341985   0.591329  -0.013628   0.023519   0.000827
    10  C    0.003707  -0.029006  -0.013628   4.469210   0.719558   0.381564
    11  O   -0.000131  -0.003995   0.023519   0.719558   7.653386  -0.063110
    12  O    0.000041   0.000844   0.000827   0.381564  -0.063110   7.804259
    13  C    0.000010  -0.000102  -0.000077  -0.050265  -0.000364   0.296517
    14  H    0.000000   0.000002  -0.000001   0.003735   0.000834  -0.018331
    15  H    0.000001   0.000033  -0.000021  -0.002791   0.006120  -0.028296
    16  H   -0.000003  -0.000008  -0.000018  -0.001946   0.006727  -0.028700
    17  C   -0.109607  -0.063855   0.006953  -0.000863  -0.000021  -0.000004
    18  C   -0.018903   0.004402  -0.000241  -0.000018   0.000000   0.000000
    19  C    0.009689   0.000446  -0.000555   0.000121  -0.000006   0.000000
    20  C   -0.000307  -0.000124   0.000010   0.000000   0.000000   0.000000
    21  H    0.010634   0.000376  -0.000035   0.000001   0.000000   0.000000
    22  C   -0.000107   0.000985  -0.000030   0.000006   0.000000   0.000000
    23  H    0.001023   0.027562  -0.001134  -0.000099  -0.000012  -0.000008
    24  C   -0.000023  -0.000004   0.000002   0.000000   0.000000   0.000000
    25  H    0.000017   0.000002   0.000000   0.000000   0.000000   0.000000
    26  H    0.000006  -0.000024  -0.000002   0.000000   0.000000   0.000000
    27  H    0.000000   0.000000   0.000000   0.000000   0.000000   0.000000
    28  H   -0.036542  -0.011912  -0.013656  -0.000146  -0.000001   0.000002
              13         14         15         16         17         18
     1  C    0.000012  -0.000001   0.000002   0.000000   0.242778  -0.099538
     2  C   -0.000374   0.000006   0.000029  -0.000195  -0.006038  -0.000259
     3  C    0.010223  -0.000387   0.000422   0.001462  -0.006776   0.000682
     4  H   -0.000140  -0.000009  -0.000030   0.000156  -0.000060  -0.000001
     5  H   -0.000034  -0.000004   0.000017   0.000002   0.000607   0.000045
     6  H   -0.000292  -0.000111  -0.000062   0.000117   0.012908  -0.000008
     7  S    0.000010   0.000000   0.000001  -0.000003  -0.109607  -0.018903
     8  N   -0.000102   0.000002   0.000033  -0.000008  -0.063855   0.004402
     9  H   -0.000077  -0.000001  -0.000021  -0.000018   0.006953  -0.000241
    10  C   -0.050265   0.003735  -0.002791  -0.001946  -0.000863  -0.000018
    11  O   -0.000364   0.000834   0.006120   0.006727  -0.000021   0.000000
    12  O    0.296517  -0.018331  -0.028296  -0.028700  -0.000004   0.000000
    13  C    4.481093   0.394788   0.397102   0.393816   0.000000   0.000000
    14  H    0.394788   0.616455  -0.028273  -0.028930   0.000000   0.000000
    15  H    0.397102  -0.028273   0.627747  -0.035099   0.000000   0.000000
    16  H    0.393816  -0.028930  -0.035099   0.632380   0.000000   0.000000
    17  C    0.000000   0.000000   0.000000   0.000000   5.129890   0.473769
    18  C    0.000000   0.000000   0.000000   0.000000   0.473769   4.853079
    19  C    0.000000   0.000000   0.000000   0.000000   0.466938  -0.016403
    20  C    0.000000   0.000000   0.000000   0.000000   0.013111   0.508692
    21  H    0.000000   0.000000   0.000000   0.000000  -0.055369   0.391319
    22  C    0.000000   0.000000   0.000000   0.000000  -0.000220  -0.078856
    23  H    0.000000   0.000000   0.000000   0.000000  -0.047760   0.012311
    24  C    0.000000   0.000000   0.000000   0.000000  -0.077218  -0.004292
    25  H    0.000000   0.000000   0.000000   0.000000   0.009661  -0.040960
    26  H    0.000000   0.000000   0.000000   0.000000   0.009487   0.000286
    27  H    0.000000   0.000000   0.000000   0.000000   0.000150   0.009609
    28  H    0.000000   0.000000   0.000000   0.000000  -0.020670  -0.003485
              19         20         21         22         23         24
     1  C   -0.078608   0.007334  -0.021587   0.010704  -0.023527  -0.000040
     2  C    0.001279  -0.000010  -0.000149   0.000035   0.000633  -0.000001
     3  C   -0.003279  -0.000013   0.000128  -0.000105   0.000042  -0.000009
     4  H   -0.000040   0.000000   0.000019  -0.000001  -0.000017   0.000000
     5  H   -0.000102   0.000005  -0.000014  -0.000001  -0.000036   0.000000
     6  H    0.001178  -0.000013   0.000012  -0.000951  -0.002471   0.000013
     7  S    0.009689  -0.000307   0.010634  -0.000107   0.001023  -0.000023
     8  N    0.000446  -0.000124   0.000376   0.000985   0.027562  -0.000004
     9  H   -0.000555   0.000010  -0.000035  -0.000030  -0.001134   0.000002
    10  C    0.000121   0.000000   0.000001   0.000006  -0.000099   0.000000
    11  O   -0.000006   0.000000   0.000000   0.000000  -0.000012   0.000000
    12  O    0.000000   0.000000   0.000000   0.000000  -0.000008   0.000000
    13  C    0.000000   0.000000   0.000000   0.000000   0.000000   0.000000
    14  H    0.000000   0.000000   0.000000   0.000000   0.000000   0.000000
    15  H    0.000000   0.000000   0.000000   0.000000   0.000000   0.000000
    16  H    0.000000   0.000000   0.000000   0.000000   0.000000   0.000000
    17  C    0.466938   0.013111  -0.055369  -0.000220  -0.047760  -0.077218
    18  C   -0.016403   0.508692   0.391319  -0.078856   0.012311  -0.004292
    19  C    4.850049  -0.075187   0.011303   0.468013   0.386441  -0.002215
    20  C   -0.075187   4.741102  -0.042172   0.004985  -0.000864   0.491501
    21  H    0.011303  -0.042172   0.718687  -0.000687  -0.000200   0.010290
    22  C    0.468013   0.004985  -0.000687   4.791002  -0.048472   0.494108
    23  H    0.386441  -0.000864  -0.000200  -0.048472   0.707254   0.009729
    24  C   -0.002215   0.491501   0.010290   0.494108   0.009729   4.788967
    25  H    0.000282   0.388431  -0.015535   0.008991   0.000073  -0.052363
    26  H   -0.044394   0.009120   0.000074   0.390177  -0.014863  -0.051741
    27  H    0.009356  -0.048588  -0.000271  -0.049190  -0.000237   0.393339
    28  H   -0.001717  -0.000099   0.001536  -0.000228   0.000623   0.000056
              25         26         27         28
     1  C   -0.000306  -0.000333   0.000045   0.361617
     2  C    0.000000   0.000000   0.000000   0.002534
     3  C    0.000000   0.000011   0.000000   0.009259
     4  H    0.000000   0.000000   0.000000   0.000222
     5  H    0.000000   0.000000   0.000000  -0.000256
     6  H   -0.000001   0.000007   0.000000   0.000172
     7  S    0.000017   0.000006   0.000000  -0.036542
     8  N    0.000002  -0.000024   0.000000  -0.011912
     9  H    0.000000  -0.000002   0.000000  -0.013656
    10  C    0.000000   0.000000   0.000000  -0.000146
    11  O    0.000000   0.000000   0.000000  -0.000001
    12  O    0.000000   0.000000   0.000000   0.000002
    13  C    0.000000   0.000000   0.000000   0.000000
    14  H    0.000000   0.000000   0.000000   0.000000
    15  H    0.000000   0.000000   0.000000   0.000000
    16  H    0.000000   0.000000   0.000000   0.000000
    17  C    0.009661   0.009487   0.000150  -0.020670
    18  C   -0.040960   0.000286   0.009609  -0.003485
    19  C    0.000282  -0.044394   0.009356  -0.001717
    20  C    0.388431   0.009120  -0.048588  -0.000099
    21  H   -0.015535   0.000074  -0.000271   0.001536
    22  C    0.008991   0.390177  -0.049190  -0.000228
    23  H    0.000073  -0.014863  -0.000237   0.000623
    24  C   -0.052363  -0.051741   0.393339   0.000056
    25  H    0.712375  -0.000293  -0.014616   0.000004
    26  H   -0.000293   0.713506  -0.014839   0.000012
    27  H   -0.014616  -0.014839   0.713677   0.000000
    28  H    0.000004   0.000012   0.000000   0.636117
 Mulliken charges:
               1
     1  C   -0.124481
     2  C   -0.087054
     3  C   -0.006869
     4  H    0.070536
     5  H    0.083846
     6  H    0.055012
     7  S   -0.064558
     8  N   -0.134725
     9  H    0.112329
    10  C    0.263490
    11  O   -0.272373
    12  O   -0.289838
    13  C    0.078089
    14  H    0.060228
    15  H    0.063097
    16  H    0.060240
    17  C    0.022208
    18  C    0.008770
    19  C    0.017410
    20  C    0.003088
    21  H   -0.008361
    22  C    0.009842
    23  H   -0.005992
    24  C   -0.000098
    25  H    0.004238
    26  H    0.003803
    27  H    0.001564
    28  H    0.076559
 Sum of Mulliken charges =   0.00000
 Mulliken charges with hydrogens summed into heavy atoms:
               1
     1  C   -0.047922
     2  C    0.067328
     3  C    0.048144
     7  S   -0.064558
     8  N   -0.022396
    10  C    0.263490
    11  O   -0.272373
    12  O   -0.289838
    13  C    0.261654
    17  C    0.022208
    18  C    0.000408
    19  C    0.011418
    20  C    0.007326
    22  C    0.013644
    24  C    0.001465
 Electronic spatial extent (au):  <R**2>=           4211.8308
 Charge=              0.0000 electrons
 Dipole moment (field-independent basis, Debye):
    X=             -1.4702    Y=             -1.0679    Z=             -1.1082  Tot=              2.1284
 Quadrupole moment (field-independent basis, Debye-Ang):
   XX=            -82.5948   YY=            -93.6594   ZZ=            -96.9259
   XY=              1.7168   XZ=              5.6174   YZ=              2.5114
 Traceless Quadrupole moment (field-independent basis, Debye-Ang):
   XX=              8.4653   YY=             -2.5994   ZZ=             -5.8659
   XY=              1.7168   XZ=              5.6174   YZ=              2.5114
 Octapole moment (field-independent basis, Debye-Ang**2):
  XXX=            -69.8808  YYY=            -29.3492  ZZZ=              3.6160  XYY=            -15.1019
  XXY=            -19.6276  XXZ=            -43.0549  XZZ=            -12.2238  YZZ=              6.3098
  YYZ=              1.0593  XYZ=             -1.4686
 Hexadecapole moment (field-independent basis, Debye-Ang**3):
 XXXX=          -3651.2331 YYYY=          -1130.8950 ZZZZ=           -377.2428 XXXY=            115.1579
 XXXZ=             39.6714 YYYX=             15.4258 YYYZ=             -3.4520 ZZZX=             20.4168
 ZZZY=             15.2106 XXYY=           -777.0758 XXZZ=           -778.9350 YYZZ=           -250.9142
 XXYZ=             34.8793 YYXZ=              5.8889 ZZXY=             13.7150
 N-N= 1.089657772556D+03 E-N=-4.598123884818D+03  KE= 1.025061643128D+03
 Calculating spin-rotation constants.
 Leave Link  601 at Fri Sep  5 02:35:42 2014, MaxMem=  2147483648 cpu:        26.5
 (Enter /home/ik1r11/g09/l9999.exe)

 Test job not archived.
 1\1\GINC-GREEN0601\SP\RM06\Gen\C11H13N1O2S1\IK1R11\05-Sep-2014\0\\#P G
 eom=AllCheck Guess=TCheck SCRF=Check GenChk RM06/ChkBas NMR=ReadFC IOp
 (3/6=22)\\Trans-isomer of dimethyloxazolidine\\0,1\C,0,0.9077323581,0.
 1778770561,-0.2589875335\C,0,-1.3675486631,1.5235622453,-0.6067159779\
 C,0,-1.4155224931,-0.0132255314,-0.4823425251\H,0,-1.7951329879,1.9952
 274442,0.2959543107\H,0,-1.9213854786,1.8783457641,-1.4888241717\H,0,-
 1.4023525753,-0.4557132441,-1.49345069\S,0,0.4009917116,1.9489826332,-
 0.7465026803\N,0,-0.2617795542,-0.4620660418,0.2647690546\H,0,-0.41001
 48951,-0.2270224316,1.2478633414\C,0,-2.680175324,-0.4077407395,0.2356
 994309\O,0,-2.7567661515,-0.6124452839,1.421536194\O,0,-3.7204521212,-
 0.4260779497,-0.6054530666\C,0,-4.98114856,-0.7049698833,-0.0010832835
 \H,0,-5.7203134116,-0.6743600505,-0.8094149262\H,0,-4.9739316314,-1.69
 76126432,0.4732083455\H,0,-5.2208286116,0.0459648552,0.7666132827\C,0,
 1.5217386949,-0.561074432,-1.4277214214\C,0,2.4542542766,0.0635260484,
 -2.2610177808\C,0,1.2197706919,-1.9066008643,-1.64836165\C,0,3.0677459
 865,-0.6379271174,-3.2923425288\H,0,2.6932330161,1.1206193051,-2.10769
 78848\C,0,1.8245414467,-2.6069544802,-2.6906152484\H,0,0.5044389342,-2
 .3999542283,-0.9856442489\C,0,2.7512566989,-1.9772769515,-3.5149534083
 \H,0,3.7944663206,-0.1320579736,-3.933514604\H,0,1.5698794194,-3.65767
 27567,-2.8544050617\H,0,3.2275071375,-2.5269373315,-4.3309832754\H,0,1
 .6587570955,0.2822446026,0.5416402478\\Version=EM64L-G09RevD.01\State=
 1-A\HF=-1029.9754125\RMSD=6.280e-09\Dipole=-0.7844826,-0.1778746,-0.23
 27215\Quadrupole=7.999554,-3.1886956,-4.8108585,-0.4965207,-0.6834307,
 2.0913723\PG=C01 [X(C11H13N1O2S1)]\\@
 DoSRE=F DoSRN=T DoDH=F DoFC=F DoNQ=T DoQCD=F DoSCD=F
 Inertia tensor (amu-bohr**2): 
                 1             2             3 
      1   0.277825D+04  0.328054D+03  0.192552D+04
      2   0.328054D+03  0.595317D+04 -0.493594D+03
      3   0.192552D+04 -0.493594D+03  0.586431D+04
 Principal inertia moments (amu-bohr**2):
 Iaa = 0.179116D+04 Ibb= 0.591236D+04 Icc= 0.689221D+04
 Rotation matrix to Principal Axis frame: 
                 1             2             3 
      1   0.891521D+00  0.246614D+00  0.379962D+00
      2  -0.122006D+00  0.938539D+00 -0.322890D+00
      3  -0.436239D+00  0.241506D+00  0.866816D+00
                Principal axis orientation:                
 ---------------------------------------------------------------------
 Center     Atomic                     Coordinates (Angstroms)
 Number     Number                        X           Y           Z
 ---------------------------------------------------------------------
      1          6                    0.706351    0.846952    0.923770
      2          6                   -1.334600    1.464835   -0.676676
      3          6                   -1.244128    0.040705   -0.090881
      4          1                   -2.167126    2.020063   -0.208989
      5          1                   -1.486833    1.448195   -1.766295
      6          1                   -0.737316   -0.615528   -0.819447
      7         16                    0.251168    2.266497   -0.263231
      8          7                   -0.486699    0.084412    1.140032
      9          1                   -1.076395    0.505875    1.859977
     10          6                   -2.636697   -0.468034    0.178394
     11          8                   -3.197312   -0.392659    1.243292
     12          8                   -3.194945   -0.944934   -0.940076
     13          6                   -4.548506   -1.371632   -0.805163
     14          1                   -4.858596   -1.720409   -1.796577
     15          1                   -4.627868   -2.186943   -0.070783
     16          1                   -5.188704   -0.540556   -0.473250
     17          6                    1.853755    0.022583    0.382592
     18          6                    2.972423    0.637522   -0.187080
     19          6                    1.844959   -1.368002    0.511058
     20          6                    4.054850   -0.118595   -0.621453
     21          1                    2.989622    1.725608   -0.304702
     22          6                    2.924244   -2.127876    0.063543
     23          1                    0.978314   -1.847394    0.973013
     24          6                    4.033214   -1.507440   -0.502207
     25          1                    4.920721    0.380556   -1.064446
     26          1                    2.896853   -3.216376    0.164073
     27          1                    4.880847   -2.102944   -0.851117
     28          1                    1.013907    1.323475    1.869429
 ---------------------------------------------------------------------
 Rotational constants (MHZ):
   1007.5833871    305.2490106    261.8523470
 nuclear spin - molecular rotation tensor [C] (MHz):
  4  H1    
   aa=     0.0000   ba=    -0.0001   ca=    -0.0001
   ab=     0.0000   bb=     0.0000   cb=     0.0000
   ac=     0.0000   bc=     0.0000   cc=     0.0000
  5  H1    
   aa=    -0.0001   ba=     0.0000   ca=     0.0000
   ab=     0.0000   bb=     0.0000   cb=     0.0000
   ac=     0.0000   bc=     0.0000   cc=     0.0000
  6  H1    
   aa=    -0.0001   ba=     0.0000   ca=    -0.0001
   ab=     0.0000   bb=     0.0000   cb=     0.0000
   ac=     0.0000   bc=     0.0000   cc=     0.0000
  8  N14   
   aa=     0.0001   ba=     0.0000   ca=     0.0000
   ab=     0.0000   bb=     0.0000   cb=     0.0000
   ac=     0.0000   bc=     0.0000   cc=     0.0000
  9  H1    
   aa=    -0.0001   ba=     0.0000   ca=    -0.0001
   ab=     0.0000   bb=     0.0000   cb=     0.0000
   ac=     0.0000   bc=     0.0000   cc=     0.0000
 14  H1    
   aa=    -0.0001   ba=     0.0000   ca=     0.0000
   ab=     0.0000   bb=     0.0000   cb=     0.0000
   ac=     0.0000   bc=     0.0000   cc=     0.0000
 15  H1    
   aa=    -0.0001   ba=     0.0000   ca=     0.0000
   ab=     0.0000   bb=     0.0000   cb=     0.0000
   ac=     0.0000   bc=     0.0000   cc=     0.0000
 16  H1    
   aa=     0.0000   ba=    -0.0001   ca=     0.0000
   ab=     0.0000   bb=     0.0000   cb=     0.0000
   ac=     0.0000   bc=     0.0000   cc=     0.0000
 21  H1    
   aa=    -0.0001   ba=     0.0000   ca=     0.0000
   ab=     0.0000   bb=     0.0000   cb=     0.0000
   ac=     0.0000   bc=     0.0000   cc=     0.0000
 23  H1    
   aa=     0.0000   ba=     0.0001   ca=    -0.0001
   ab=     0.0000   bb=     0.0000   cb=     0.0000
   ac=     0.0000   bc=     0.0000   cc=     0.0000
 25  H1    
   aa=     0.0000   ba=     0.0001   ca=    -0.0001
   ab=     0.0000   bb=     0.0000   cb=     0.0000
   ac=     0.0000   bc=     0.0000   cc=     0.0000
 26  H1    
   aa=    -0.0001   ba=     0.0000   ca=     0.0000
   ab=     0.0000   bb=     0.0000   cb=     0.0000
   ac=     0.0000   bc=     0.0000   cc=     0.0000
 27  H1    
   aa=     0.0000   ba=    -0.0001   ca=    -0.0001
   ab=     0.0000   bb=     0.0000   cb=     0.0000
   ac=     0.0000   bc=     0.0000   cc=     0.0000
 28  H1    
   aa=    -0.0001   ba=     0.0000   ca=     0.0000
   ab=     0.0000   bb=     0.0000   cb=     0.0000
   ac=     0.0000   bc=     0.0000   cc=     0.0000
 Nuclear quadrupole coupling constants [Chi] (MHz):
  8  N(14) 
   aa=     2.1290   ba=     2.0557   ca=    -0.2301
   ab=     2.0557   bb=    -4.0017   cb=     1.7987
   ac=    -0.2301   bc=     1.7987   cc=     1.8726
 Dipole moment (Debye):
     -1.4644496     -1.0589184     -1.1243834  Tot=      2.1284170

 Atoms with significant hyperfine tensors:  H5-1,N8-14,H14-1,H15-1,H21-1,H26-1

--------------------------------------------------------------------------------
 Trans-isomer of dimethyloxazolidine                     
   99  1000  50  0.1760E-11  0.1000E+07  0.1000E+01 1.0000000000
a 222232  1  0  0  0  1  1   1  0  1  0
     10000   0.10075834E+04    0.0000E+00   /  A  /
     20000   0.30524901E+03    0.0000E+00   /  B  /
     30000   0.26185235E+03    0.0000E+00   /  C  /
 220010000   0.31935424E+01    0.0000E+00   /  (8 N-14) 3/2*Chi_aa             /
 220040000  -0.14685786E+01    0.0000E+00   /  (8 N-14) 1/4*(Chi_bb-Chi_cc)    /
 220610000   0.20556657E+01    0.0000E+00   /  (8 N-14) Chi_ab                 /
 220410000  -0.23011896E+00    0.0000E+00   /  (8 N-14) Chi_ac                 /
 220210000   0.17986819E+01    0.0000E+00   /  (8 N-14) Chi_bc                 /
  10010000  -0.10789656E-03    0.0000E+00   /  (5 H-1) C_aa                    /
  30010000  -0.10035913E-03    0.0000E+00   /  (14 H-1) C_aa                   /
  40010000  -0.10392107E-03    0.0000E+00   /  (15 H-1) C_aa                   /
  50010000  -0.10047245E-03    0.0000E+00   /  (21 H-1) C_aa                   /
  60010000  -0.10605783E-03    0.0000E+00   /  (26 H-1) C_aa                   /
--------------------------------------------------------------------------------



 ALL OUR THINKING ABOUT NATURE MUST NECESSARILY MOVE IN CIRCLES OR SPIRALS;
 FOR WE CAN ONLY UNDERSTAND NATURE IF WE THINK ABOUT HER, AND WE CAN ONLY
 THINK BECAUSE OUR BRAIN IS BUILT IN ACCORDANCE WITH NATURE'S LAWS.

                                             -- TIMOTHY FERRIS, "GALAXIES"
 Job cpu time:       0 days  8 hours 32 minutes 54.4 seconds.
 File lengths (MBytes):  RWF=    912 Int=      0 D2E=      0 Chk=     32 Scr=      8
 Normal termination of Gaussian 09 at Fri Sep  5 02:35:42 2014.
