Platform-MPI licensed for SCM.


 Parallel Execution: Process Information
 ==============================================================================
 Rank   Node Name                              NodeID   MyNodeRank  NodeMaster
    0   sal                                       0          0          0
    1   sal                                       0          1         -1
    2   sal                                       0          2         -1
    3   sal                                       0          3         -1
    4   sal                                       0          4         -1
    5   sal                                       0          5         -1
    6   sal                                       0          6         -1
    7   sal                                       0          7         -1
 ==============================================================================


(INPUT FILE)
ATOMS
1 C      -1.074940950000      -0.725835560000       0.000000000000
2 C       0.137435900000      -0.002035610000       0.000000000000
3 H      -1.007614205000      -1.712652101000      -0.433659109500
4 H      -1.911663214000      -0.198355106100      -0.433659109500
5 H      -1.384045530000      -0.910373791200       1.018233765000
6 H       0.974158164200      -0.529516063900       0.433659109500
7 H       0.070109155490       0.984780931300       0.433659109500
8 H       0.446540479800       0.182502621200      -1.018233765000
END

GUIBONDS
1 2 1 1.0
2 3 1 1.0
3 4 1 1.0
4 5 1 1.0
5 6 2 1.0
6 7 2 1.0
7 8 2 1.0
END

SYMMETRY NOSYM

XC
GGA PBE
END

SAVE  TAPE21 TAPE10 TAPE13

FULLSCF
NOPRINT LOGFILE

Fragments
H t21.H
C t21.C
End
end input

 *******************************************************************************
 *                                                                             *
 *  -------------------------------------                                      *
 *   Amsterdam Density Functional  (ADF)         2013.01   April 2, 2013       *
 *  -------------------------------------                                      *
 *                                               Build 201304112215            *
 *                                                                             *
 *                                                                             *
 *                              =================                              *
 *                              |               |                              *
 *                              |     A D F     |                              *
 *                              |               |                              *
 *                              =================                              *
 *                                                                             *
 *                                                                             *
 *   Online information and documentation:  http://www.scm.com                 *
 *   E-mail:  support@scm.com   info@scm.com                                   *
 *                                                                             *
 *   Scientific publications using ADF results must be properly referenced     *
 *   See the User Manuals (or the web site) for recommended citations          *
 *   The terms and conditions of the End User License Agreement apply to       *
 *   the use of ADF, http://www.scm.com/Sales/LicAgreement.html                *
 *                                                                             *
 ********************  x86_64_linux_intel / platform_mpi  **********************
 
 Licensed to: Oxford University site license / Oxford / UK
 SCM User ID: u7109
  
 ADF 2013.01  RunTime: Feb04-2014 15:54:24  Nodes: 1  Procs: 8

 Temporary files are created in /nas/home/spin_dynamics/kuprov/tmp.kuprov.27476.0/kid_0.vcwCpa


Communication costs MPI_COMM_WORLD:      2.200 usec per message,   0.0170 usec per 8-byte item
Communication costs for intra-node:      2.221 usec per message,   0.0168 usec per 8-byte item

 *** (NO TITLE) ***



 ===========================
 A T T A C H E D   F I L E S
 ===========================
  



 ===============================
 M O D E L   P A R A M E T E R S
 ===============================
  
 DENSITY FUNCTIONAL POTENTIAL (scf)
    LDA:                               PW92                                    == Not Default ==
    Gradient Corrections:              PBEc PBEx                               == Not Default ==

 SPIN  (restricted / unrestr.)
    Molecule:                          Restricted                               
    Fragments:                         Restricted                               

 OTHER ASPECTS
    Relativistic Corrections:          ---                                      

    Nuclear Charge Density Model:      Point Charge Nuclei                                                                                                                                                                                     
    Core Treatment:                    Frozen Orbital(s)                        

    Hyperfine or Zeeman Interaction:   ---                                      


 Fragment File(s)
 ----------------
 C:
         file : t21.C
         jobid: ADF 2013.01  RunTime: Feb04-2014 15:54:18  Nodes: 1  Procs: 1
         title: Carbon (DZP, 1s frozen)
 H:
         file : t21.H
         jobid: ADF 2013.01  RunTime: Feb04-2014 15:54:15  Nodes: 1  Procs: 1
         title: Hydrogen (DZP)



                                        ************************************
                                        *  R U N   T Y P E : SINGLE POINT  *
                                        ************************************
  



 ===============
 G E O M E T R Y  ***  3D  Molecule  ***
 ===============
  

 ATOMS
 =====                            X Y Z                    CHARGE
                                (Angstrom)             Nucl     +Core       At.Mass
                       --------------------------    ----------------       -------
    1  C              -1.0749   -0.7258    0.0000      6.00      4.00       12.0000
    2  C               0.1374   -0.0020    0.0000      6.00      4.00       12.0000
    3  H              -1.0076   -1.7127   -0.4337      1.00      1.00        1.0078
    4  H              -1.9117   -0.1984   -0.4337      1.00      1.00        1.0078
    5  H              -1.3840   -0.9104    1.0182      1.00      1.00        1.0078
    6  H               0.9742   -0.5295    0.4337      1.00      1.00        1.0078
    7  H               0.0701    0.9848    0.4337      1.00      1.00        1.0078
    8  H               0.4465    0.1825   -1.0182      1.00      1.00        1.0078


 FRAGMENTS
 =========                                     Atoms in this Fragment     Cart. coord.s (Angstrom)
                                               -------------------------------------------------------
    1  C                                                 1  C           -1.0749   -0.7258    0.0000
    2  C                                                 2  C            0.1374   -0.0020    0.0000
    3  H                                                 3  H           -1.0076   -1.7127   -0.4337
    4  H                                                 4  H           -1.9117   -0.1984   -0.4337
    5  H                                                 5  H           -1.3840   -0.9104    1.0182
    6  H                                                 6  H            0.9742   -0.5295    0.4337
    7  H                                                 7  H            0.0701    0.9848    0.4337
    8  H                                                 8  H            0.4465    0.1825   -1.0182


 Interatomic Distance Matrix (Angstrom)
 --------------------------------------

   1)     0.000
   2)     1.412   0.000
   3)     1.080   2.104   0.000
   4)     1.080   2.104   1.764   0.000
   5)     1.080   2.044   1.701   1.701   0.000
   6)     2.104   1.080   2.466   3.031   2.459   0.000
   7)     2.104   1.080   3.031   2.466   2.459   1.764   0.000
   8)     2.044   1.080   2.459   2.459   2.948   1.701   1.701   0.000

 Min. Distance =    1.0800
 Max. Distance =    3.0315



 =====================================
 S Y M M E T R Y ,   E L E C T R O N S
 =====================================
  
 Symmetry: NOSYM

 Irreducible Representations, including subspecies
 -------------------------------------------------
 A


 Configuration of Valence Electrons
 ==================================
 ( determined in the SCF procedure )

 Total:   14

 Net Charge: 0 (Nuclei minus Electrons)

 Aufbau principle for MO occupations will be applied through SCF cycle no.      30
 Thereafter, the program will assign electrons to MOs that are spatially
 similar to the occupied MOs in a "reference" cycle ("KeepOrbitals").
 The reference cycle is always the PREVIOUS cycle: it will evolve with
 the SCF procedure.
1
 ***************************************************************************************************



                                      ****************************************
                                      *  B U I L D : (Fragments, Functions)  *
                                      ****************************************
  



 =======
 S F O s  ***  (Symmetrized Fragment Orbitals)  ***
 =======
  
 SFOs are linear combinations of (valence) Fragment Orbitals (FOs), such that the SFOs transform as the
 irreducible representations of the (molecular) symmetry group. Each SFO is therefore characterized by
 an irrep of the molecule and by a few (or only one) generating FOs.
 The SFOs constitute a symmetry-adapted basis for the Fock matrix. The MO eigenvector coefficients in
 this basis provide a direct interpretation of the MOs in terms of Frontier Orbital Theory.

 The SFOs are combined with auxiliary Core Functions (CFs) to ensure orthogonalization on the (frozen)
 Core Orbitals (COs). The Core-orthogonalized SFOs (CSFOs) constitute the true Fock basis.

 The FOs, and hence also the (C)SFOs are combinations of the elementary basis functions (BAS). The basis
 functions that participate in the description of the SFOs depend on the irrep. The indices of the
 involved functions are printed below for each irrep.
 (The complete list of primitive basis functions is printed in another section)

 Total nr. of (C)SFOs (summation over all irreps) :    56

 NOTE: a (C)SFO that is defined as a combination of more than one FO is usually NOT normalized.



                                       === A ===
 Nr. of SFOs :   56
 Cartesian basis functions that participate in this irrep (total number =    60) :
      1    16     2     3     4     7     5     8     6     9
     10    11    12    13    14    15    17    18    19    22
     20    23    21    24    25    26    27    28    29    30
     31    32    33    34    35    36    37    38    39    40
     41    42    43    44    45    46    47    48    49    50
     51    52    53    54    55    56    57    58    59    60

    SFO  (index         Fragment          Generating    Expansion in Fragment Orbitals
  indx  incl.CFs)   Occup   Orb.Energy   FragmentType  Coeff.   Orbital     on Fragment
 --------------------------------------------------------------------------------------
     1       3      2.000      -0.513 au  C             1.00      1 S               1
                        (     -13.965 eV)
     2       4       --         0.471 au  C             1.00      2 S               1
                        (      12.806 eV)
     3       5      0.667      -0.202 au  C             1.00      1 P:x             1
                        (      -5.501 eV)
     4       6       --         0.444 au  C             1.00      2 P:x             1
                        (      12.092 eV)
     5       7      0.667      -0.202 au  C             1.00      1 P:y             1
                        (      -5.501 eV)
     6       8       --         0.444 au  C             1.00      2 P:y             1
                        (      12.092 eV)
     7       9      0.667      -0.202 au  C             1.00      1 P:z             1
                        (      -5.501 eV)
     8      10       --         0.444 au  C             1.00      2 P:z             1
                        (      12.092 eV)
     9      11       --         1.225 au  C             1.00      1 D:z2            1
                        (      33.347 eV)
    10      12       --         1.225 au  C             1.00      1 D:x2-y2         1
                        (      33.347 eV)
    11      13       --         1.225 au  C             1.00      1 D:xy            1
                        (      33.347 eV)
    12      14       --         1.225 au  C             1.00      1 D:xz            1
                        (      33.347 eV)
    13      15       --         1.225 au  C             1.00      1 D:yz            1
                        (      33.347 eV)
    14      16      2.000      -0.513 au  C             1.00      1 S               2
                        (     -13.965 eV)
    15      17       --         0.471 au  C             1.00      2 S               2
                        (      12.806 eV)
    16      18      0.667      -0.202 au  C             1.00      1 P:x             2
                        (      -5.501 eV)
    17      19       --         0.444 au  C             1.00      2 P:x             2
                        (      12.092 eV)
    18      20      0.667      -0.202 au  C             1.00      1 P:y             2
                        (      -5.501 eV)
    19      21       --         0.444 au  C             1.00      2 P:y             2
                        (      12.092 eV)
    20      22      0.667      -0.202 au  C             1.00      1 P:z             2
                        (      -5.501 eV)
    21      23       --         0.444 au  C             1.00      2 P:z             2
                        (      12.092 eV)
    22      24       --         1.225 au  C             1.00      1 D:z2            2
                        (      33.347 eV)
    23      25       --         1.225 au  C             1.00      1 D:x2-y2         2
                        (      33.347 eV)
    24      26       --         1.225 au  C             1.00      1 D:xy            2
                        (      33.347 eV)
    25      27       --         1.225 au  C             1.00      1 D:xz            2
                        (      33.347 eV)
    26      28       --         1.225 au  C             1.00      1 D:yz            2
                        (      33.347 eV)
    27      29      1.000      -0.240 au  H             1.00      1 S               3
                        (      -6.519 eV)
    28      30       --         0.390 au  H             1.00      2 S               3
                        (      10.614 eV)
    29      31       --         0.405 au  H             1.00      1 P:x             3
                        (      11.012 eV)
    30      32       --         0.405 au  H             1.00      1 P:y             3
                        (      11.012 eV)
    31      33       --         0.405 au  H             1.00      1 P:z             3
                        (      11.012 eV)
    32      34      1.000      -0.240 au  H             1.00      1 S               4
                        (      -6.519 eV)
    33      35       --         0.390 au  H             1.00      2 S               4
                        (      10.614 eV)
    34      36       --         0.405 au  H             1.00      1 P:x             4
                        (      11.012 eV)
    35      37       --         0.405 au  H             1.00      1 P:y             4
                        (      11.012 eV)
    36      38       --         0.405 au  H             1.00      1 P:z             4
                        (      11.012 eV)
    37      39      1.000      -0.240 au  H             1.00      1 S               5
                        (      -6.519 eV)
    38      40       --         0.390 au  H             1.00      2 S               5
                        (      10.614 eV)
    39      41       --         0.405 au  H             1.00      1 P:x             5
                        (      11.012 eV)
    40      42       --         0.405 au  H             1.00      1 P:y             5
                        (      11.012 eV)
    41      43       --         0.405 au  H             1.00      1 P:z             5
                        (      11.012 eV)
    42      44      1.000      -0.240 au  H             1.00      1 S               6
                        (      -6.519 eV)
    43      45       --         0.390 au  H             1.00      2 S               6
                        (      10.614 eV)
    44      46       --         0.405 au  H             1.00      1 P:x             6
                        (      11.012 eV)
    45      47       --         0.405 au  H             1.00      1 P:y             6
                        (      11.012 eV)
    46      48       --         0.405 au  H             1.00      1 P:z             6
                        (      11.012 eV)
    47      49      1.000      -0.240 au  H             1.00      1 S               7
                        (      -6.519 eV)
    48      50       --         0.390 au  H             1.00      2 S               7
                        (      10.614 eV)
    49      51       --         0.405 au  H             1.00      1 P:x             7
                        (      11.012 eV)
    50      52       --         0.405 au  H             1.00      1 P:y             7
                        (      11.012 eV)
    51      53       --         0.405 au  H             1.00      1 P:z             7
                        (      11.012 eV)
    52      54      1.000      -0.240 au  H             1.00      1 S               8
                        (      -6.519 eV)
    53      55       --         0.390 au  H             1.00      2 S               8
                        (      10.614 eV)
    54      56       --         0.405 au  H             1.00      1 P:x             8
                        (      11.012 eV)
    55      57       --         0.405 au  H             1.00      1 P:y             8
                        (      11.012 eV)
    56      58       --         0.405 au  H             1.00      1 P:z             8
                        (      11.012 eV)



 ================================
 (Slater-type)  F U N C T I O N S  ***  (Basis and Fit)  ***
 ================================
  

 Atom Type    1  (C)
 ==============

 Valence Basis Sets:   6
 -----------------------
   1 S    5.400000
   2 S    1.240000
   2 S    1.980000
   2 P    0.960000
   2 P    2.200000
   3 D    2.200000

 Frozen Core Shells
 ------------------
    S:  1

 Charge Fitting Sets (for the computation of the Coulomb Potential):  20
 -----------------------------------------------------------------------
   1 S   10.800000
   2 S   11.590000
   2 S    7.590000
   2 S    4.970000
   3 S    4.790000
   3 S    3.350000
   3 S    2.340000
   3 S    1.640000
   2 P    8.340000
   2 P    5.140000
   3 P    4.670000
   3 P    3.100000
   3 P    2.060000
   3 D    5.880000
   3 D    3.840000
   3 D    2.510000
   3 D    1.640000
   4 F    5.400000
   4 F    3.550000
   5 G    4.500000

 Atom Type    2  (H)
 ==============

 Valence Basis Sets:   3
 -----------------------
   1 S    0.760000
   1 S    1.280000
   2 P    1.250000

 Charge Fitting Sets (for the computation of the Coulomb Potential):  11
 -----------------------------------------------------------------------
   1 S    3.160000
   1 S    2.090000
   1 S    1.380000
   2 S    1.500000
   2 P    4.000000
   2 P    2.650000
   2 P    1.750000
   3 D    4.000000
   3 D    2.500000
   4 F    3.000000
   5 G    4.000000


 BAS: List of all Elementary Cartesian Basis Functions
 =====================================================

 The numbering in the list below (to the right of the function characteristics) is referred
 to in print-outs of MO eigenvectors and Mulliken populations in the BAS representation
 (as contrasted to the SFO representation).

 Notes:
 1. The functions are characterized by a polynomial prefactor (powers of x,y,z and r) and
    an exponential decay factor alpha.
 2. Since the basis sets are specific for an atom TYPE, the individual functions occur on
    all atoms of that type.
 3. The word 'Core' in the left margin signals that it is a Core Function (CF) : not a
    degree of freedom in the valence set, but only used to ensure orthogonalization of
    the other valence basis functions on the frozen Core Orbitals.


 (power of) X  Y  Z  R     Alpha  on Atom
            ==========     =====     ==========

 C                                    1    2
                                  ---------------------------------------------------------------------------
    Core    0  0  0  0     5.400      1   16
            0  0  0  1     1.240      2   17
            0  0  0  1     1.980      3   18
            1  0  0  0     0.960      4   19
            0  1  0  0     0.960      5   20
            0  0  1  0     0.960      6   21
            1  0  0  0     2.200      7   22
            0  1  0  0     2.200      8   23
            0  0  1  0     2.200      9   24
            2  0  0  0     2.200     10   25
            1  1  0  0     2.200     11   26
            1  0  1  0     2.200     12   27
            0  2  0  0     2.200     13   28
            0  1  1  0     2.200     14   29
            0  0  2  0     2.200     15   30

 H                                    3    4    5    6    7    8
                                  ---------------------------------------------------------------------------
            0  0  0  0     0.760     31   36   41   46   51   56
            0  0  0  0     1.280     32   37   42   47   52   57
            1  0  0  0     1.250     33   38   43   48   53   58
            0  1  0  0     1.250     34   39   44   49   54   59
            0  0  1  0     1.250     35   40   45   50   55   60

 Total number of charge fitting functions (nprimf)       464
 Total number of Cartesian basis functions (naos)         60
 Total number of Cartesian core functions  (ncos)          2

1
 ***************************************************************************************************



                                              ***********************
                                              *  T E C H N I C A L  *
                                              ***********************
  



 =============================================================
 P A R A L L E L I Z A T I O N  and  V E C T O R I Z A T I O N
 =============================================================
  
 Nr of parallel processes:                                8
 Maximum vector length in NumInt loops:                 128



 ===============
 I O  vs.  C P U  ***  (store numerical data on disk or recalculate)  ***
 ===============
  
 Basis functions:   recalculate when needed
 Fit functions:     recalculate when needed

 IO buffersize (Mb):                                     64.000000



 =====================
 S C F   U P D A T E S
 =====================
  
 Max. nr. of cycles:                                50
 Convergence criterion:                              0.0000010000
   secondary criterion:                              0.0010000000

 Mix parameter (when DIIS does not apply):           0.2000000000


 DIIS (Direct Inversion in Iteration Space)
    Replace damping when SCF Error is below:         0.5000000000
    Apply anyway after SCF cycle:
                                                     5
    (Max.) nr. of expansion vectors:                10

    Upperbound on expansion coefficients:            5.0000000000
    (when exceeded, IterationSpace is re-built)
    2nd Upperbound on coefficients:                 25.0000000000
    (when exceeded, simple damping will be used)
 Automatic ElectronSmearing (in case of problematic SCF convergence) disabled



 =================
 P R E C I S I O N  ***  (General: NumInt, NeglectFunctionTails, ...)  ***
 =================
  

 NumInt:           Target precision:                 4.0000000000
 -------           Initial precision:                4.0000000000
                   Min. precision (optimization):    4.0000000000

 Neglect Functions:          Basis functions:        0.1000000000E-05
 ------------------          Fit functions:          0.1000000000E-05



 ===========================
 L I N E A R   S C A L I N G
 ===========================
  

 Cut-off radii density fit:                        0.1000000000E-07
 Overlap cut-off criterion AO matrix elements:     0.1000000000E-05
 Cut-offs for Coulomb potential and fitted density:0.1000000000E-07
 Cut-off criterion for Coulomb multipole terms:    0.1000000000E-07
 Progressive Convergence parameter:                 0.000000000    
1
 ***************************************************************************************************



                                            ***************************
                                            *  C O M P U T A T I O N  *
                                            ***************************
  

 Number of elements of the density matrix on this node (used, total):       245      1830



 ===========================================
 Numerical Integration : Fuzzy Cells (Becke)
 ===========================================
  
 Becke grid quality:         NORMAL         
  
 Lebedev angular grid order range:          from  11 to  23
 Nr. of radial points range:                from  46 to  49

 Total nr. of points:      48158
 Nr. of blocks:              377
 Block length:               128
 Nr. of dummy points:         98


 Test of Precision of the Numerical Integration Grid
 ===================================================

 Integral of the Total Core Density:                   4.00000411119938
 Relative Error:                                       1.028E-06



 =====
 S C F
 =====
  

 CYCLE    1
 orbitals (Q,E):
 ---------------
 A :1...17           ( 2.00    -0.9548)  ( 2.00    -0.7848)  ( 2.00    -0.6246)  ( 2.00    -0.6152)
                     ( 2.00    -0.6021)  ( 2.00    -0.5127)  ( 2.00    -0.4971)  ( 0.00    -0.0650)
                     ( 0.00    -0.0225)  ( 0.00    -0.0206)  ( 0.00    -0.0122)  ( 0.00     0.0130)
                     ( 0.00     0.0332)  ( 0.00     0.0593)  ( 0.00     0.1939)  ( 0.00     0.1999)
                     ( 0.00     0.2050)

 CYCLE    2
 d-Pmat  mean:  0.16E-01
 imax=     18: -0.10E+00
 orbitals (Q,E):
 ---------------
 A :1...8            ( 2.00    -0.8554)  ( 2.00    -0.7008)  ( 2.00    -0.5413)  ( 2.00    -0.5314)
                     ( 2.00    -0.5025)  ( 2.00    -0.4352)  ( 2.00    -0.4191)  ( 0.00    -0.0329)

 CYCLE    3
 d-Pmat  mean:  0.34E-01
 imax=     42: -0.12E+00
 orbitals (Q,E):
 ---------------
 A :1...8            ( 2.00    -0.6945)  ( 2.00    -0.5358)  ( 2.00    -0.3915)  ( 2.00    -0.3814)
                     ( 2.00    -0.3381)  ( 2.00    -0.2849)  ( 2.00    -0.2679)  ( 0.00     0.0315)

 CYCLE    4
 d-Pmat  mean:  0.53E-02
 imax=     42:  0.21E-01
 orbitals (Q,E):
 ---------------
 A :1...8            ( 2.00    -0.7117)  ( 2.00    -0.5600)  ( 2.00    -0.4098)  ( 2.00    -0.3999)
                     ( 2.00    -0.3569)  ( 2.00    -0.3049)  ( 2.00    -0.2884)  ( 0.00     0.0228)

 CYCLE    5
 d-Pmat  mean:  0.30E-03
 imax=     52:  0.11E-02
 orbitals (Q,E):
 ---------------
 A :1...8            ( 2.00    -0.7135)  ( 2.00    -0.5604)  ( 2.00    -0.4111)  ( 2.00    -0.4011)
                     ( 2.00    -0.3583)  ( 2.00    -0.3059)  ( 2.00    -0.2892)  ( 0.00     0.0225)

 CYCLE    6
 d-Pmat  mean:  0.34E-04
 imax=     46:  0.13E-03
 orbitals (Q,E):
 ---------------
 A :1...8            ( 2.00    -0.7134)  ( 2.00    -0.5603)  ( 2.00    -0.4110)  ( 2.00    -0.4010)
                     ( 2.00    -0.3582)  ( 2.00    -0.3057)  ( 2.00    -0.2891)  ( 0.00     0.0225)

 CYCLE    7
 d-Pmat  mean:  0.25E-05
 imax=     47: -0.12E-04
 orbitals (Q,E):
 ---------------
 A :1...8            ( 2.00    -0.7134)  ( 2.00    -0.5603)  ( 2.00    -0.4110)  ( 2.00    -0.4010)
                     ( 2.00    -0.3582)  ( 2.00    -0.3057)  ( 2.00    -0.2891)  ( 0.00     0.0225)

 CYCLE    8
 d-Pmat  mean:  0.33E-06
 imax=     42: -0.33E-05
 orbitals (Q,E):
 ---------------
 A :1...8            ( 2.00    -0.7134)  ( 2.00    -0.5603)  ( 2.00    -0.4110)  ( 2.00    -0.4010)
                     ( 2.00    -0.3582)  ( 2.00    -0.3057)  ( 2.00    -0.2891)  ( 0.00     0.0225)

 CYCLE    9
 d-Pmat  mean:  0.29E-07
 imax=     57:  0.24E-06
 orbitals (Q,E):
 ---------------
 A :1...8            ( 2.00    -0.7134)  ( 2.00    -0.5603)  ( 2.00    -0.4110)  ( 2.00    -0.4010)
                     ( 2.00    -0.3582)  ( 2.00    -0.3057)  ( 2.00    -0.2891)  ( 0.00     0.0225)

 SCF CONVERGED

 CYCLE   10
1
 ***************************************************************************************************



                                                *******************
                                                *  R E S U L T S  *
                                                *******************
  
 *** Setting up for NEW gradients in focky
 *** Using FIT density in focky

 Orbital Energies, per Irrep and Spin:
 ======================================
                        Occup              E (au)              E (eV)       Diff (eV) with prev. cycle
                        -----      --------------------        ------       --------------------------
 A
               1        2.000     -0.71337401749040E+00       -19.412              -4.17E-08
               2        2.000     -0.56028141880110E+00       -15.246              -6.10E-08
               3        2.000     -0.41096751429227E+00       -11.183              -1.49E-07
               4        2.000     -0.40096630969596E+00       -10.911               5.85E-08
               5        2.000     -0.35816044906775E+00        -9.746              -6.85E-08
               6        2.000     -0.30574234182323E+00        -8.320              -1.77E-07
               7        2.000     -0.28908808244440E+00        -7.866               7.01E-08
               8        0.000      0.22537791121532E-01         0.613
               9        0.000      0.78101646908379E-01         2.125
              10        0.000      0.99194666260381E-01         2.699
              11        0.000      0.10607523317035E+00         2.886
              12        0.000      0.14001529460266E+00         3.810
              13        0.000      0.15720920734108E+00         4.278
              14        0.000      0.24851644504939E+00         6.762
              15        0.000      0.32876635277515E+00         8.946
              16        0.000      0.33082663529411E+00         9.002
              17        0.000      0.33293368628082E+00         9.060
  
 HOMO :        7 A                -0.28908808244440E+00
 LUMO :        8 A                 0.22537791121532E-01
  


 Orbital Energies of the Core Orbitals:
 ======================================
 (Note that the atoms are grouped by atomtype, see the labels, and may hence NOT be in input order)

 AtomType  Orbital  Atom                   E (au)                        E (eV)
 --------  -------  ----           --------------------        ----------------
 C           1S        1          -0.98763312470184E+01                -268.749
                       2          -0.98763312469368E+01                -268.749


 Fit test: (difference of exact and fit density, squared integrated, result summed over spins)
         Sum-of-Fragments:                             0.00000082897063
         Orthogonalized Fragments:                     0.00011135653622
         SCF:                                          0.00003805105763



 ==========================
 Electron Density at Nuclei
 ==========================
  
 The electron density is calculated at points on a small sphere around the center of a nucleus.
 The printed electron density is the average electron density on these points.
 The radius of the sphere is the printed approximate finite nuclear radius.

         Atom        Nuclear Radius (Angstrom)             Electron Density (a.u.)
         ----        -------------------------             -----------------------
     1)   C                 0.0000320678                              124.85119
     2)   C                 0.0000320678                              124.85119
     3)   H                 0.0000181514                                0.50911
     4)   H                 0.0000181514                                0.50911
     5)   H                 0.0000181514                                0.51250
     6)   H                 0.0000181514                                0.50911
     7)   H                 0.0000181514                                0.50911
     8)   H                 0.0000181514                                0.51250



 =======================================
 M U L L I K E N   P O P U L A T I O N S
 =======================================
  
 The survey below gives for each atom:
 a) the total charge (Z minus electrons)
 b) the net spin polarization (nr of electrons spin-A minus spin-B)
 c) for each spin the atomic electron valence density (integrated) per L-value.

 Atom              Charge    Spin density          S         P         D         F
 ----              ------    ------------       ------    ------    ------    ------
 1 C              -0.0426                       1.2007    2.7919    0.0500    0.0000
 2 C              -0.0426                       1.2007    2.7919    0.0500    0.0000
 3 H               0.0098                       0.9346    0.0556    0.0000    0.0000
 4 H               0.0098                       0.9346    0.0556    0.0000    0.0000
 5 H               0.0230                       0.9229    0.0541    0.0000    0.0000
 6 H               0.0098                       0.9346    0.0556    0.0000    0.0000
 7 H               0.0098                       0.9346    0.0556    0.0000    0.0000
 8 H               0.0230                       0.9229    0.0541    0.0000    0.0000

 Populations of individual BAS functions
 ----------------------------------------
 1 C            0.0004  0.4548  0.7454  0.2074  0.3141  0.3915  0.6380  0.6252  0.6157  0.0163
                0.0098  0.0119  0.0078  0.0068 -0.0024
 2 C            0.0004  0.4548  0.7454  0.2074  0.3141  0.3915  0.6380  0.6252  0.6157  0.0163
                0.0098  0.0119  0.0078  0.0068 -0.0024
 3 H            0.1163  0.8183  0.0184  0.0164  0.0208
 4 H            0.1163  0.8183  0.0131  0.0218  0.0208
 5 H            0.1038  0.8191  0.0167  0.0189  0.0185
 6 H            0.1163  0.8183  0.0131  0.0218  0.0208
 7 H            0.1163  0.8183  0.0184  0.0164  0.0208
 8 H            0.1038  0.8191  0.0167  0.0189  0.0185

 Gross Charges per Atom (Z minus electrons)
 ==========================================
            -0.0426   -0.0426    0.0098    0.0098    0.0230    0.0098    0.0098    0.0230
 Net Total:  0.00000000


 Atom-Atom Population Matrix (off-diagonal elements not doubled)
 ===============================================================

     1 :     2.6948
     2 :     0.3283    2.6948
     3 :     0.4263   -0.0741    0.7413
     4 :     0.4263   -0.0741   -0.0387    0.7413
     5 :     0.3991   -0.0840   -0.0422   -0.0421    0.7613
     6 :    -0.0741    0.4263   -0.0289    0.0358   -0.0293    0.7413
     7 :    -0.0741    0.4263    0.0358   -0.0289   -0.0293   -0.0387    0.7413
     8 :    -0.0840    0.3991   -0.0293   -0.0293    0.0437   -0.0421   -0.0422    0.7613



 =================================================
 H I R S H F E L D   C H A R G E   A N A L Y S I S
 =================================================
  
 For each fragment: the (numerical) integral of rho(scf) * rho(fragment)/rho(sum-of-fragments)
 (nuclear charges are included, electrons are counted negative)

 The fragments and their ordering are defined in the early G E O M E T R Y output section.
 If you use single-atom fragments, this usually implies that all atoms of the same
 chemical type are grouped together. This may not be the order in which you listed them
 in the input file!

    1  C                        -0.1164
    2  C                        -0.1164
    3  H                         0.0411
    4  H                         0.0411
    5  H                         0.0343
    6  H                         0.0411
    7  H                         0.0411
    8  H                         0.0343

 Sum of these charges (accuracy NumInt/Tails) =           0.00001981



 =============================
 V O R O N O I   C H A R G E S
 =============================
  
 For each atom: the (numerical) integral of the total electronic charge density in its Voronoi cell,
 i.e. the region of space that is closer to that atom than to any other atom.
 (cf. Wigner-Seitz cells in crystals)

 Within the Voronoi cell the subintegrals over the atomic sphere and the remaining part are evaluated
 separately to give the numbers of electrons (negative charge) in these regions.
 The net total charge in the cell (including the nuclear charge) is also given.

 Values are provided for
    a) the Initial (sum-of-fragments) density
    b) the Orthogonalized-Fragments density
    c) the SCF density
    d) the Voronoi Deformation Density (VDD): the difference SCF-Initial for the complete atomic cell


  Atom                Initial                    OrthFrag                   SCF
             Sphere RestCell NetTotal   Sphere RestCell NetTotal   Sphere RestCell NetTotal      VDD
 -----       ------------------------   ------------------------   ------------------------    -----
    1 C      -2.140   -2.312    1.548   -2.288   -2.621    1.091   -2.167   -2.409    1.424   -0.124
    2 C      -2.140   -2.312    1.548   -2.288   -2.621    1.091   -2.167   -2.409    1.424   -0.124
    3 H      -0.075   -1.439   -0.515   -0.099   -1.268   -0.367   -0.111   -1.361   -0.472    0.042
    4 H      -0.075   -1.438   -0.513   -0.099   -1.264   -0.363   -0.111   -1.359   -0.470    0.043
    5 H      -0.076   -1.445   -0.521   -0.099   -1.261   -0.361   -0.112   -1.370   -0.482    0.039
    6 H      -0.075   -1.438   -0.514   -0.099   -1.264   -0.363   -0.111   -1.359   -0.470    0.043
    7 H      -0.075   -1.438   -0.514   -0.099   -1.268   -0.367   -0.111   -1.361   -0.472    0.042
    8 H      -0.076   -1.445   -0.521   -0.099   -1.261   -0.361   -0.112   -1.370   -0.482    0.039
 ---------------------------------------------------------------------------------------------------
 Total NetCharge:               0.000                      0.000                      0.000    0.000
 (accuracy NumInt/Tails)

 Remark: the 'NetTotal' Voronoi charges often do not match the Mulliken and/or Hirshfeld charges very
 well. This is caused by the fact that chemically different atoms are not treated in accordance with
 their relative sizes. (Voronoi cells are defined by boundary planes halfway between the atoms.)
 However, the CHANGES in charge, comparing 'Initial' to 'SCF' for instance, do give a fair indication
 of the flow of charge caused by the relaxation from sum-of-fragments to self-consistency.

 Warning: the absolute accuracy of the VDD charges obtained using the Fuzzy Cells (Becke) integration
 scheme is much poorer than the one obtained with an 'equivalent' Voronoi integration grid. 



 =================================================================
 M U L T I P O L E   D E R I V E D   C H A R G E   A N A L Y S I S
 =================================================================

 This charge analysis uses the atomic multipoles (obtained from the fitted density) up to some level X,
 and reconstructs these multipoles exactly (up to level X) by distributing charges over all atoms.
 This is achieved by using Lagrange multipliers and a weight function to keep the multipoles local.

 Dummy atoms can be included (by setting INCDUM in MDC-block to 1) to obtain a fractional charge.
 This is generally useful and necessary only for small symmetrical molecules, when there are not
 enough degrees of freedom to reconstruct the multipoles.

 Since the atomic multipoles are reconstructed up to level X,
 the molecular multipoles are represented also up to level X.
 The recommended level is to reconstruct up to quadrupole : -> MDC-q charges.

 See: M. Swart, P.Th. van Duijnen, J.G. Snijders, J.Comput.Chem., (2001), p. 79-88.

 ------------------------------------------------------------- 
 Atomic electronic multipole moments from SCF equations (a.u.)
 ------------------------------------------------------------- 

   atom        charge        dip-x     dip-y     dip-z      quad-xx   quad-xy   quad-xz   quad-yy   quad-yz   quad-zz
 --------------------------------------------------------------------------------------------------------------------
    1 C      1.362235    -0.369244 -0.220420  0.063945     0.178965  0.380457 -0.012830 -0.026322 -0.007615 -0.152644
    2 C      1.362235     0.369244  0.220420 -0.063945     0.178965  0.380457 -0.012830 -0.026322 -0.007615 -0.152644
    3 H     -0.443616     0.084903 -0.586475 -0.249851     0.230258  0.130869  0.032309 -0.324221 -0.445284  0.093963
    4 H     -0.443655    -0.475987  0.353026 -0.249876    -0.144730  0.535125 -0.376644  0.050776  0.239739  0.093954
    5 H     -0.474964    -0.133500 -0.079711  0.637748     0.190559 -0.003841  0.324444  0.192645  0.193713 -0.383204
    6 H     -0.443655     0.475987 -0.353026  0.249876    -0.144730  0.535125 -0.376644  0.050776  0.239739  0.093954
    7 H     -0.443616    -0.084903  0.586475  0.249851     0.230258  0.130870  0.032309 -0.324221 -0.445284  0.093963
    8 H     -0.474964     0.133500  0.079711 -0.637748     0.190559 -0.003841  0.324444  0.192645  0.193713 -0.383204

 --------------------------------------- 
 Multipole derived atomic charges (a.u.)
 --------------------------------------- 

 The MDC-m charges are just the Monopole terms in the multipole expansion, while for the MDC-d charges
 also the Dipoles are reconstructed. The usually preferred charges are the MDC-q charges.
 These reconstruct the Monopoles, Dipoles and Quadrupoles (both atomic AND molecular).

        Atom    Level:     MDC-m        MDC-d        MDC-q
 ---------------------------------------------------------
     1     C            1.362235     0.513031    -2.124107
     2     C            1.362235     0.513031    -2.124107
     3     H           -0.443616    -0.175543     0.726416
     4     H           -0.443655    -0.175560     0.725117
     5     H           -0.474964    -0.161928     0.672574
     6     H           -0.443655    -0.175560     0.725117
     7     H           -0.443616    -0.175543     0.726416
     8     H           -0.474964    -0.161928     0.672574

 ------------------------------------------------ 
 Average absolute deviations in atomic multipoles
 ------------------------------------------------ 

 Stated here are the average differences between the atomic multipoles
 and the reconstructed atomic multipoles (from the distributed charges).
 If these values are not zero, this means there are not enough degrees of freedom,
 to be able to reconstruct the atomic multipoles. (This usually happens only
 for small and/or highly symmetric molecules). If this is the case, one could add
 dummy atoms as extra point charges (and setting INCDUM in MDC-block to 1).

 Level:                                 MDC-d        MDC-q
 ---------------------------------------------------------
 Charge   (a.u.)                       0.0000       0.0000
 Dipole   (Debye)                      0.0000       0.2440
 Quad.    (a.u.)                       0.3329       0.0231

 --------------------------------------- 
 Represented molecular multipole moments
 --------------------------------------- 

 Given here are the Molecular multipole moments from the atomic charges, and from the Fit Density.
 Note that the atomic charges represent the latter, NOT the ones from the Exact density.

            Q (a.u.)             Dipole moment (Debye)                                          Quadrupole moment (a.u.)
                                 x         y         z              xx        xy        xz        yy        yz        zz
------------------------------------------------------------------------------------------------------------------------
MDC-m         0.0000        0.0000    0.0000    0.0000         -1.6350   -1.6618    0.6576    0.1574    0.3928    1.4775
MDC-d         0.0000        0.0000    0.0000    0.0000         -0.6715   -0.5793    0.0004   -0.0466    0.0003    0.7181
MDC-q         0.0000        0.0000    0.0000    0.0000          2.7601    2.4115   -0.0359    0.1926   -0.0152   -2.9527
 
Fit.Dens.     0.0000        0.0000    0.0000    0.0000         -0.2135    0.5735    0.0613    0.2923    0.0367   -0.0788



 =============
 Dipole Moment  ***  (Debye)  ***
 =============
  
 Vector   :        -0.00000008     -0.00000004      0.00000002
 Magnitude:         0.00000010

 This molecular dipole moment is calculated with analytic integration



 =========================================
 Quadrupole Moment (Buckingham convention)  ***  (a.u.)  ***
 =========================================
  
      quad-xx        quad-xy        quad-xz        quad-yy        quad-yz        quad-zz
     -0.23694786    -0.47856997     0.06756479     0.27905756     0.04035147    -0.04210971

 This molecular quadrupole moment is calculated with analytic integration
1



 ===========================
 B O N D I N G   E N E R G Y  ***  (decomposition)  ***
 ===========================
  
*** IMPORTANT NOTE ***

The bond energy is computed as an energy difference between molecule and
fragments. In particular when the fragments are single atoms, they are usually
computed as SPHERICALLY SYMMETRIC and SPIN-RESTRICTED. Obviously, this usually
does NOT represent the true atomic groundstate.

To obtain the 'real' bond energy, (atomic) correction terms must be applied
for the true (multiplet) fragment ground state. See ref: E.J.Baerends,
V.Branchadell, M.Sodupe, Chem.Phys.Lett.265 (1997) 481

General theoretical background on the bond energy decomposition scheme used
here (Morokuma-Ziegler) can be found in the review paper:
F.M. Bickelhaupt and E.J. Baerends,
"Kohn-Sham Density Functional Theory: Predicting and Understanding Chemistry"
In: Rev. Comput. Chem.; Lipkowitz, K. B. and Boyd, D. B., Eds.;
Wiley-VCH: New York, 2000, Vol. 15, 1-86.

Symbols used in the Bickelhaupt-Baerends (BB) paper are given below to make
the direct connection to that paper, where detailed explanations can be found
on the meaning of the various terms.


                                               hartree              eV         kcal/mol           kJ/mol
                                  --------------------     -----------       ----------      -----------

Pauli Repulsion
  Kinetic (Delta T^0):              12.149922148410678        330.6162          7624.19         31899.62
  Delta V^Pauli Coulomb:            -5.920256458010781       -161.0984         -3715.02        -15543.63
  Delta V^Pauli LDA-XC:             -1.583863369961954        -43.0991          -993.89         -4158.43
  Delta V^Pauli GGA-Exchange:        0.043450265713404          1.1823            27.27           114.08
  Delta V^Pauli GGA-Correlation:    -0.005238061514624         -0.1425            -3.29           -13.75
                                  --------------------     -----------       ----------      -----------
  Total Pauli Repulsion:             4.684014524636722        127.4585          2939.26         12297.88
 (Total Pauli Repulsion =
  Delta E^Pauli in BB paper)

Steric Interaction
  Pauli Repulsion (Delta E^Pauli):   4.684014524636722        127.4585          2939.26         12297.88
  Electrostatic Interaction:        -0.798896645044653        -21.7391          -501.32         -2097.50
 (Electrostatic Interaction =
  Delta V_elstat in the BB paper)
                                  --------------------     -----------       ----------      -----------
  Total Steric Interaction:          3.885117879592069        105.7194          2437.95         10200.38
 (Total Steric Interaction =
  Delta E^0 in the BB paper)

Orbital Interactions
  A:                                -5.351466525983715       -145.6208         -3358.10        -14050.27
                                  --------------------     -----------       ----------      -----------
  Total Orbital Interactions:       -5.351466525983715       -145.6208         -3358.10        -14050.27

Alternative Decomposition Orb.Int.
  Kinetic:                         -10.450836217608583       -284.3817         -6558.00        -27438.67
  Coulomb:                           4.940992612233875        134.4512          3100.52         12972.57
  XC:                                0.158377079390992          4.3097            99.38           415.82
                                  --------------------     -----------       ----------      -----------
  Total Orbital Interactions:       -5.351466525983716       -145.6208         -3358.10        -14050.27

  Residu (E=Steric+OrbInt+Res):      0.000002156239495          0.0001             0.00             0.01

Total Bonding Energy:               -1.466346490152150        -39.9013          -920.15         -3849.89


Summary of Bonding Energy (energy terms are taken from the energy decomposition above)
======================================================================================

  Electrostatic Energy:             -0.798896645044653        -21.7391          -501.32         -2097.50
  Kinetic Energy:                    1.699085930802095         46.2345          1066.19          4460.95
  Coulomb (Steric+OrbInt) Energy:   -0.979261689537410        -26.6471          -614.50         -2571.05
  XC Energy:                        -1.387274086372182        -37.7496          -870.53         -3642.29
                                  --------------------     -----------       ----------      -----------
  Total Bonding Energy:             -1.466346490152150        -39.9013          -920.15         -3849.89


Correction terms (incorporated in energies above; only for test purposes):

1. Indication of fit-quality: 1st-order fit-correction used in the energy (hartree):   0.0022031098
2. Electrostatic (Fit correction):   0.0000000000



 =========================================
 F R A G M E N T   E N E R G Y   T E R M S  ***  (summed over all fragments)  ***
 =========================================
  

The energy terms below are (parts of) the Total Energy of the fragments from which the molecule
 is built.

Exchange and Correlation
  Exchange LDA:                     -9.899427311648612       -269.3771         -6211.99        -25990.94
  Exchange GGA:                     -1.316673311462581        -35.8285          -826.23         -3456.93
  Correlation LDA:                  -0.979915825247785        -26.6649          -614.91         -2572.77
  Correlation GGA:                   0.589044462928713         16.0287           369.63          1546.54
                                  --------------------     -----------       ----------      -----------
  Total XC:                        -11.606971985430263       -315.8418         -7283.49        -30474.10
1



 =======================================================
 S F O   P O P U L A T I O N S ,   M O   A N A L Y S I S
 =======================================================
  
 A Mulliken population analysis is performed on (input-)selected MOs. All populations refer to SFOs.
 BAS populations may have been printed directly after the SCF part.


                                       === A ===


 SFO contributions (%) per orbital
 (multiplication by the orbital occupation yields the SFO Gross Populations)

 Orb.:        1      2      3      4      5      6      7      8      9     10     11
 occup:     2.00   2.00   2.00   2.00   2.00   2.00   2.00   0.00   0.00   0.00   0.00
 CF+SFO     ----   ----   ----   ----   ----   ----   ----   ----   ----   ----   ----
 ------
      3:   36.73  24.70   0.00   0.06  -0.38   0.00   0.05  -0.68  11.07   0.00  -0.06
      4:   -0.55  -0.27   0.00   0.00  -0.28   0.00  -0.01 -17.24 -17.43   0.00  -0.07
      5:    2.03   2.63   8.36   0.02  25.26   4.76   0.12   4.05  -2.08   1.96   0.00
      6:   -0.34  -1.97  -0.30   0.00   1.51   0.20   0.01  -0.62  -1.65  -3.77   0.01
      7:    0.72   0.94  23.46   0.01   9.00  13.35   0.04   1.44  -0.74   5.51   0.00
      8:   -0.12  -0.70  -0.84   0.00   0.54   0.57   0.00  -0.22  -0.59 -10.57   0.00
      9:    0.01   0.07   0.00  32.15   0.05   0.00  18.47   0.04   0.04   0.00   8.10
     10:    0.00   0.00   0.00  -1.12   0.00   0.00   0.73  -0.01   0.00   0.00 -13.25
     16:   36.73  24.70   0.00   0.06  -0.38   0.00   0.05  -0.68  11.09   0.00  -0.06
     17:   -0.55  -0.27   0.00   0.00  -0.28   0.00  -0.01 -17.24 -17.43   0.00  -0.07
     18:    2.03   2.63   8.36   0.02  25.24   4.76   0.12   4.09  -2.08   1.96   0.00
     19:   -0.34  -1.97  -0.30   0.00   1.51   0.20   0.01  -0.63  -1.65  -3.77   0.01
     20:    0.72   0.94  23.46   0.01   9.00  13.35   0.04   1.46  -0.74   5.51   0.00
     21:   -0.12  -0.70  -0.84   0.00   0.54   0.57   0.00  -0.22  -0.59 -10.57   0.00
     22:    0.01   0.07   0.00  32.15   0.05   0.00  18.47   0.04   0.04   0.00   8.10
     23:    0.00   0.00   0.00  -1.12   0.00   0.00   0.73  -0.01   0.00   0.00 -13.25
     29:    4.20   7.16   8.05   2.58   5.03  13.96   3.73  12.49  15.45  26.67   6.79
     30:   -1.06   0.28   1.14   0.34   0.02   1.05   0.25   8.63   7.18   2.67  -0.15
     34:    4.20   7.16   8.05   2.58   5.03  13.96   3.73  12.49  15.44  26.68   6.79
     35:   -1.06   0.28   1.14   0.34   0.02   1.05   0.25   8.64   7.18   2.68  -0.15
     39:    4.34   6.77   0.00  10.43   2.64   0.00  19.98  13.06  10.36   0.00  39.60
     40:   -1.14   0.34   0.00   1.53  -0.08   0.00   1.34   8.81   6.49   0.00   3.80
     43:    0.48   0.79   0.00  -0.22   0.20   0.00  -0.33  -0.53  -0.67   0.00  -1.47
     44:    4.20   7.16   8.05   2.57   5.03  13.96   3.73  12.49  15.45  26.68   6.81
     45:   -1.06   0.28   1.14   0.34   0.02   1.05   0.25   8.64   7.18   2.68  -0.15
     49:    4.20   7.16   8.05   2.58   5.03  13.96   3.73  12.49  15.46  26.67   6.81
     50:   -1.06   0.28   1.14   0.34   0.02   1.05   0.25   8.63   7.18   2.67  -0.15
     54:    4.34   6.77   0.00  10.44   2.64   0.00  19.98  13.06  10.37   0.00  39.57
     55:   -1.14   0.34   0.00   1.53  -0.08   0.00   1.34   8.81   6.48   0.00   3.80
     58:    0.48   0.79   0.00  -0.22   0.20   0.00  -0.33  -0.52  -0.67   0.00  -1.47


 Summation over all MOs, multiplied by occupation: Total SFO Gross Populations in this Irrep
 ===========================================================================================

     0.00    0.00    1.22   -0.02    0.86   -0.02    0.95   -0.01    1.01   -0.01    0.01    0.01
     0.01    0.01    0.01    1.22   -0.02    0.86   -0.02    0.95   -0.01    1.01   -0.01    0.01
     0.01    0.01    0.01    0.01    0.89    0.04    0.02    0.02    0.02    0.89    0.04    0.01
     0.02    0.02    0.88    0.04    0.02    0.02    0.02    0.89    0.04    0.01    0.02    0.02
     0.89    0.04    0.02    0.02    0.02    0.88    0.04    0.02    0.02    0.02



 List of all MOs, ordered by energy, with the most significant SFO gross populations
 ===================================================================================

 Each percentage contribution in the table below corresponds to the indicated SFO.
 In general, a SFO may be a linear combination of several Fragment Orbitals on the same,
 or on symmetry-related Fragments. Only the first 'member' of such a combination is
 specified here. A full definition of all SFOs is given in an earlier part of the output.
 The numbering of the SFOs in this table does NOT include the Core Orbitals, and starts
 from one for each symmetry representation, as in the SFO definition list earlier.

       E(eV)  Occ       MO           %     SFO (first member)   E(eV)  Occ   Fragment
 -------------------------------------------------------------------------------------

     -19.412  2.00     1 A         36.73%     1 S             -13.965  2.00     1 C
                                   36.73%     1 S             -13.965  2.00     2 C
                                    4.34%     1 S              -6.519  1.00     8 H
                                    4.34%     1 S              -6.519  1.00     5 H
                                    4.20%     1 S              -6.519  1.00     6 H
                                    4.20%     1 S              -6.519  1.00     4 H
                                    4.20%     1 S              -6.519  1.00     3 H
                                    4.20%     1 S              -6.519  1.00     7 H
                                    2.03%     1 P:x            -5.501  0.67     2 C
                                    2.03%     1 P:x            -5.501  0.67     1 C
                                   -1.14%     2 S              10.614  0.00     5 H
                                   -1.14%     2 S              10.614  0.00     8 H
                                   -1.06%     2 S              10.614  0.00     7 H
                                   -1.06%     2 S              10.614  0.00     3 H
                                   -1.06%     2 S              10.614  0.00     4 H
                                   -1.06%     2 S              10.614  0.00     6 H
     -15.246  2.00     2 A         24.70%     1 S             -13.965  2.00     2 C
                                   24.70%     1 S             -13.965  2.00     1 C
                                    7.16%     1 S              -6.519  1.00     3 H
                                    7.16%     1 S              -6.519  1.00     4 H
                                    7.16%     1 S              -6.519  1.00     7 H
                                    7.16%     1 S              -6.519  1.00     6 H
                                    6.77%     1 S              -6.519  1.00     5 H
                                    6.77%     1 S              -6.519  1.00     8 H
                                    2.63%     1 P:x            -5.501  0.67     1 C
                                    2.63%     1 P:x            -5.501  0.67     2 C
                                   -1.97%     2 P:x            12.092  0.00     2 C
                                   -1.97%     2 P:x            12.092  0.00     1 C
     -11.183  2.00     3 A         23.46%     1 P:y            -5.501  0.67     2 C
                                   23.46%     1 P:y            -5.501  0.67     1 C
                                    8.36%     1 P:x            -5.501  0.67     2 C
                                    8.36%     1 P:x            -5.501  0.67     1 C
                                    8.05%     1 S              -6.519  1.00     6 H
                                    8.05%     1 S              -6.519  1.00     4 H
                                    8.05%     1 S              -6.519  1.00     3 H
                                    8.05%     1 S              -6.519  1.00     7 H
                                    1.14%     2 S              10.614  0.00     4 H
                                    1.14%     2 S              10.614  0.00     6 H
                                    1.14%     2 S              10.614  0.00     7 H
                                    1.14%     2 S              10.614  0.00     3 H
     -10.911  2.00     4 A         32.15%     1 P:z            -5.501  0.67     2 C
                                   32.15%     1 P:z            -5.501  0.67     1 C
                                   10.44%     1 S              -6.519  1.00     8 H
                                   10.43%     1 S              -6.519  1.00     5 H
                                    2.58%     1 S              -6.519  1.00     3 H
                                    2.58%     1 S              -6.519  1.00     7 H
                                    2.58%     1 S              -6.519  1.00     4 H
                                    2.57%     1 S              -6.519  1.00     6 H
                                    1.53%     2 S              10.614  0.00     8 H
                                    1.53%     2 S              10.614  0.00     5 H
                                   -1.12%     2 P:z            12.092  0.00     1 C
                                   -1.12%     2 P:z            12.092  0.00     2 C
      -9.746  2.00     5 A         25.26%     1 P:x            -5.501  0.67     1 C
                                   25.24%     1 P:x            -5.501  0.67     2 C
                                    9.00%     1 P:y            -5.501  0.67     1 C
                                    9.00%     1 P:y            -5.501  0.67     2 C
                                    5.03%     1 S              -6.519  1.00     4 H
                                    5.03%     1 S              -6.519  1.00     6 H
                                    5.03%     1 S              -6.519  1.00     7 H
                                    5.03%     1 S              -6.519  1.00     3 H
                                    2.64%     1 S              -6.519  1.00     8 H
                                    2.64%     1 S              -6.519  1.00     5 H
                                    1.51%     2 P:x            12.092  0.00     1 C
                                    1.51%     2 P:x            12.092  0.00     2 C
      -8.320  2.00     6 A         13.96%     1 S              -6.519  1.00     6 H
                                   13.96%     1 S              -6.519  1.00     4 H
                                   13.96%     1 S              -6.519  1.00     7 H
                                   13.96%     1 S              -6.519  1.00     3 H
                                   13.35%     1 P:y            -5.501  0.67     2 C
                                   13.35%     1 P:y            -5.501  0.67     1 C
                                    4.76%     1 P:x            -5.501  0.67     2 C
                                    4.76%     1 P:x            -5.501  0.67     1 C
                                    1.05%     2 S              10.614  0.00     3 H
                                    1.05%     2 S              10.614  0.00     7 H
                                    1.05%     2 S              10.614  0.00     6 H
                                    1.05%     2 S              10.614  0.00     4 H
      -7.866  2.00     7 A         19.98%     1 S              -6.519  1.00     8 H
                                   19.98%     1 S              -6.519  1.00     5 H
                                   18.47%     1 P:z            -5.501  0.67     2 C
                                   18.47%     1 P:z            -5.501  0.67     1 C
                                    3.73%     1 S              -6.519  1.00     7 H
                                    3.73%     1 S              -6.519  1.00     3 H
                                    3.73%     1 S              -6.519  1.00     6 H
                                    3.73%     1 S              -6.519  1.00     4 H
                                    1.34%     2 S              10.614  0.00     5 H
                                    1.34%     2 S              10.614  0.00     8 H
       0.613  0.00     8 A        -17.24%     2 S              12.806  0.00     2 C
                                  -17.24%     2 S              12.806  0.00     1 C
                                   13.06%     1 S              -6.519  1.00     8 H
                                   13.06%     1 S              -6.519  1.00     5 H
                                   12.49%     1 S              -6.519  1.00     4 H
                                   12.49%     1 S              -6.519  1.00     6 H
                                   12.49%     1 S              -6.519  1.00     7 H
                                   12.49%     1 S              -6.519  1.00     3 H
                                    8.81%     2 S              10.614  0.00     8 H
                                    8.81%     2 S              10.614  0.00     5 H
                                    8.64%     2 S              10.614  0.00     4 H
                                    8.64%     2 S              10.614  0.00     6 H
                                    8.63%     2 S              10.614  0.00     7 H
                                    8.63%     2 S              10.614  0.00     3 H
                                    4.09%     1 P:x            -5.501  0.67     2 C
                                    4.05%     1 P:x            -5.501  0.67     1 C
                                    1.46%     1 P:y            -5.501  0.67     2 C
                                    1.44%     1 P:y            -5.501  0.67     1 C
       2.125  0.00     9 A        -17.43%     2 S              12.806  0.00     1 C
                                  -17.43%     2 S              12.806  0.00     2 C
                                   15.46%     1 S              -6.519  1.00     7 H
                                   15.45%     1 S              -6.519  1.00     3 H
                                   15.45%     1 S              -6.519  1.00     6 H
                                   15.44%     1 S              -6.519  1.00     4 H
                                   11.09%     1 S             -13.965  2.00     2 C
                                   11.07%     1 S             -13.965  2.00     1 C
                                   10.37%     1 S              -6.519  1.00     8 H
                                   10.36%     1 S              -6.519  1.00     5 H
                                    7.18%     2 S              10.614  0.00     3 H
                                    7.18%     2 S              10.614  0.00     7 H
                                    7.18%     2 S              10.614  0.00     4 H
                                    7.18%     2 S              10.614  0.00     6 H
                                    6.49%     2 S              10.614  0.00     5 H
                                    6.48%     2 S              10.614  0.00     8 H
                                   -2.08%     1 P:x            -5.501  0.67     2 C
                                   -2.08%     1 P:x            -5.501  0.67     1 C
                                   -1.65%     2 P:x            12.092  0.00     2 C
                                   -1.65%     2 P:x            12.092  0.00     1 C
       2.699  0.00    10 A         26.68%     1 S              -6.519  1.00     4 H
                                   26.68%     1 S              -6.519  1.00     6 H
                                   26.67%     1 S              -6.519  1.00     7 H
                                   26.67%     1 S              -6.519  1.00     3 H
                                  -10.57%     2 P:y            12.092  0.00     1 C
                                  -10.57%     2 P:y            12.092  0.00     2 C
                                    5.51%     1 P:y            -5.501  0.67     1 C
                                    5.51%     1 P:y            -5.501  0.67     2 C
                                   -3.77%     2 P:x            12.092  0.00     1 C
                                   -3.77%     2 P:x            12.092  0.00     2 C
                                    2.68%     2 S              10.614  0.00     4 H
                                    2.68%     2 S              10.614  0.00     6 H
                                    2.67%     2 S              10.614  0.00     7 H
                                    2.67%     2 S              10.614  0.00     3 H
                                    1.96%     1 P:x            -5.501  0.67     1 C
                                    1.96%     1 P:x            -5.501  0.67     2 C
       2.886  0.00    11 A         39.60%     1 S              -6.519  1.00     5 H
                                   39.57%     1 S              -6.519  1.00     8 H
                                  -13.25%     2 P:z            12.092  0.00     1 C
                                  -13.25%     2 P:z            12.092  0.00     2 C
                                    8.10%     1 P:z            -5.501  0.67     1 C
                                    8.10%     1 P:z            -5.501  0.67     2 C
                                    6.81%     1 S              -6.519  1.00     6 H
                                    6.81%     1 S              -6.519  1.00     7 H
                                    6.79%     1 S              -6.519  1.00     4 H
                                    6.79%     1 S              -6.519  1.00     3 H
                                    3.80%     2 S              10.614  0.00     8 H
                                    3.80%     2 S              10.614  0.00     5 H
                                   -1.47%     1 P:z            11.012  0.00     5 H
                                   -1.47%     1 P:z            11.012  0.00     8 H
       3.810  0.00    12 A         24.60%     1 S              -6.519  1.00     8 H
                                   24.60%     1 S              -6.519  1.00     5 H
                                   23.36%     1 P:z            -5.501  0.67     2 C
                                   23.35%     1 P:z            -5.501  0.67     1 C
                                  -12.45%     2 P:z            12.092  0.00     2 C
                                  -12.45%     2 P:z            12.092  0.00     1 C
                                    6.31%     1 S              -6.519  1.00     6 H
                                    6.31%     1 S              -6.519  1.00     4 H
                                    6.31%     1 S              -6.519  1.00     7 H
                                    6.31%     1 S              -6.519  1.00     3 H
                                   -1.69%     1 P:z            11.012  0.00     8 H
                                   -1.69%     1 P:z            11.012  0.00     5 H
                                    1.20%     1 P:z            11.012  0.00     3 H
                                    1.20%     1 P:z            11.012  0.00     7 H
                                    1.20%     1 P:z            11.012  0.00     4 H
                                    1.20%     1 P:z            11.012  0.00     6 H
       4.278  0.00    13 A         19.72%     1 S              -6.519  1.00     7 H
                                   19.72%     1 S              -6.519  1.00     3 H
                                   19.72%     1 S              -6.519  1.00     6 H
                                   19.72%     1 S              -6.519  1.00     4 H
                                   16.10%     1 P:y            -5.501  0.67     1 C
                                   16.10%     1 P:y            -5.501  0.67     2 C
                                  -11.76%     2 P:y            12.092  0.00     2 C
                                  -11.76%     2 P:y            12.092  0.00     1 C
                                    5.74%     1 P:x            -5.501  0.67     2 C
                                    5.74%     1 P:x            -5.501  0.67     1 C
                                   -4.19%     2 P:x            12.092  0.00     2 C
                                   -4.19%     2 P:x            12.092  0.00     1 C
                                    2.00%     1 P:y            11.012  0.00     5 H
                                    2.00%     1 P:y            11.012  0.00     8 H
                                   -1.83%     1 P:y            11.012  0.00     3 H
                                   -1.83%     1 P:y            11.012  0.00     7 H
                                    1.78%     2 S              10.614  0.00     7 H
                                    1.78%     2 S              10.614  0.00     3 H
                                    1.78%     2 S              10.614  0.00     6 H
                                    1.78%     2 S              10.614  0.00     4 H
                                   -1.52%     1 P:x            11.012  0.00     6 H
                                   -1.52%     1 P:x            11.012  0.00     4 H



 ===============================================================================
 Electrostatic potential at the Nuclei due to valence electrons and other nuclei
 ===============================================================================
  
         Atom                  Potential
         ----                  ---------
     1)   C                   3.52934387
     2)   C                   3.52934388
     3)   H                   1.12077925
     4)   H                   1.12078021
     5)   H                   1.12728159
     6)   H                   1.12078021
     7)   H                   1.12077925
     8)   H                   1.12728159
 
 
 ========================
 No memory problems found
 ========================
 
 Maximum number of active allocate calls:         843
 
 *******************************************************************************

                             A D F   E X I T
 NORMAL TERMINATION



 =================
 Timing Statistics
 =================
  
 Total Used :                     CPU=        5.42      System=        0.14     Elapsed=       12.54

 Calls  Section                     ( Mean, Percentage )
 ---------------------------------------------------------------------------------------------------
     3  ><      ................      0.00    0.00             0.00    0.00             0.02    0.47
     1  INIT    ................      0.44    8.04             0.00    0.00             0.88    6.98
     1  GEOMET  ................      0.34    6.20             0.07   51.43             2.08   16.60
     1  FRAGM   ................      0.01    0.22             0.01    5.71             0.38    3.05
     1  INPUTA  ................      0.00    0.00             0.00    0.00             0.00    0.00
     1  ATDEN   ................      0.01    0.15             0.00    0.00             0.07    0.57
     1  MAINSY  ................      0.16    3.03             0.00    0.00             1.16    9.21
     1  SYMFIT  ................      0.00    0.07             0.00    0.00             0.00    0.03
     1  CORORT  ................      0.00    0.00             0.00    0.00             0.07    0.56
     1  SYMORB  ................      0.05    0.96             0.00    0.00             0.13    1.07
     1  FITINT  ................      0.03    0.52             0.02   11.43             0.80    6.40
     1  CLSMAT  ................      0.01    0.15             0.00    0.00             0.03    0.21
     1  ORTHON  ................      0.01    0.15             0.00    0.00             0.38    3.04
     1  GENPT   ................      0.32    5.83             0.02   17.14             0.48    3.84
     1  PTBAS   ................      0.05    0.89             0.00    0.00             0.09    0.75
    10  FOCKY   ................      0.25   46.20             0.00    5.71             0.29   23.51
    10  FOCKTR  ................      0.00    0.07             0.00    0.00             0.00    0.06
    10  FOCKNM  ................      0.00    0.00             0.00    0.00             0.00    0.00
    10  SDIIS   ................      0.00    0.22             0.00    0.00             0.05    4.26
    10  EMERGE  ................      0.01    1.33             0.00    0.00             0.03    2.75
     1  COREPS  ................      0.24    4.50             0.00    0.00             0.26    2.10
     1  TOTEN   ................      1.05   19.41             0.01    8.57             1.12    8.90
     1  POPAN   ................      0.01    0.15             0.00    0.00             0.06    0.52
     1  DEBYE   ................      0.01    0.15             0.00    0.00             0.03    0.22
     1  INPUTE  ................      0.00    0.00             0.00    0.00             0.00    0.01
     1  SYMORE  ................      0.00    0.07             0.00    0.00             0.00    0.01
     1  METS    ................      0.01    0.15             0.00    0.00             0.03    0.23
     1  CETS    ................      0.00    0.07             0.00    0.00             0.00    0.03
     1  ELNRGY  ................      0.00    0.07             0.00    0.00             0.02    0.19
     1  POPUL   ................      0.00    0.07             0.00    0.00             0.08    0.63
     1  QMPOT   ................      0.00    0.00             0.00    0.00             0.00    0.01
     1  EXIT PROCEDURE .........      0.07    1.33             0.00    0.00             0.48    3.79


 Currently Open Files (EXIT00)
 ====================

 Unit    Access Format  Status   Type       Ident (file)
 -------------------------------------------------------
   3      SEQ    FORM   TRANSP  NORMAL      LOGFILE
                                          ( /nas/home/spin_dynamics/kuprov/andreas.logfile )


 Buffered I/O statistics
 =======================
 Memory available:                     67108864
 Number of records fitting in memory:     16131
 Input :   1.9% of                         7926  *4k bytes
 Output:  21.2% of                         5502  *4k bytes
 Records from serial files evicted:           0
                    others evicted:           0
 Hash table lookups:      34460 with          0 conflicts (  0.00%)
Platform-MPI licensed for SCM.


 Parallel Execution: Process Information
 ==============================================================================
 Rank   Node Name                              NodeID   MyNodeRank  NodeMaster
    0   sal                                       0          0          0
    1   sal                                       0          1         -1
    2   sal                                       0          2         -1
    3   sal                                       0          3         -1
    4   sal                                       0          4         -1
    5   sal                                       0          5         -1
    6   sal                                       0          6         -1
    7   sal                                       0          7         -1
 ==============================================================================


(INPUT FILE)
NMR
  out iso tens
  adfgui
  ATOMS 1 2 3 4 5 6 7 8
  u1k best
  calc all
END

 *******************************************************************************
 *                                                                             *
 *  -------------------------------------                                      *
 *   Amsterdam Density Functional  (ADF)         2013.01   April 2, 2013       *
 *  -------------------------------------                                      *
 *                                               Build 201304112215            *
 *                                                                             *
 *                                                                             *
 *                              =================                              *
 *                              |               |                              *
 *                              |     N M R     |                              *
 *                              |               |                              *
[...]

 total calculated spin-spin coupling:    
  isotropic    k=      -1.634                              j=     -19.623
      -1.634       0.000       0.000            -19.623       0.000       0.000
       0.000      -1.634       0.000              0.000     -19.623       0.000
       0.000       0.000      -1.634              0.000       0.000     -19.623
 
 Principal Axis System (u,v,w) expressed in Cartesians:
 (taken as eigenvectors of the symmetric part of the coupling tensor,
  sorted in ascending order of eigenvalues = principal values)
        u         v         w
        1.000     0.000     0.000
        0.000     1.000     0.000
        0.000     0.000     1.000
 *******************************************************************************

                             N M R   E X I T
 NORMAL TERMINATION



 =================
 Timing Statistics
 =================
  
 Total Used :                     CPU=        9.51      System=        0.13     Elapsed=       16.71

 Calls  Section                     ( Mean, Percentage )
 ---------------------------------------------------------------------------------------------------
     3  ><      ................      0.00    0.08             0.00    0.00             0.02    0.34
     1  GENPT   ................      0.22    2.35             0.04   33.33             1.73   10.37
    64  CALFC   ................      0.10   65.10             0.00   54.55             0.14   51.88
     8  FCPT1   ................      0.39   32.42             0.00   12.12             0.77   36.98
     8  FCCPL   ................      0.00    0.00             0.00    0.00             0.00    0.00
     1  JCOUPL  ................      0.00    0.04             0.00    0.00             0.06    0.33
     1  EXIT PROCEDURE .........      0.00    0.00             0.00    0.00             0.01    0.09


 Currently Open Files (EXIT00)
 ====================

 Unit    Access Format  Status   Type       Ident (file)
 -------------------------------------------------------
   3      SEQ    FORM   TRANSP  NORMAL      LOGFILE
                                          ( /nas/home/spin_dynamics/kuprov/andreas.logfile )


 Buffered I/O statistics
 =======================
 Memory available:                     67108864
 Number of records fitting in memory:     16131
 Input :  52.3% of                        10941  *4k bytes
 Output:  53.9% of                         3166  *4k bytes
 Records from serial files evicted:           0
                    others evicted:           0
 Hash table lookups:      39507 with          0 conflicts (  0.00%)

 ***************************************************************************************************
 (LOGFILE)
 <Feb04-2014> <15:54:15>  ADF 2013.01  RunTime: Feb04-2014 15:54:15  Nodes: 1  Procs: 1
 <Feb04-2014> <15:54:15>  Hydrogen (DZP)
 <Feb04-2014> <15:54:15>  RunType   : CREATE
 <Feb04-2014> <15:54:15>  Net Charge: 0 (Nuclei minus Electrons)
 <Feb04-2014> <15:54:15>  Symmetry  : ATOM
  Coordinates
    Atom         X           Y           Z   (Angstrom)
    1.H         0.000000    0.000000    0.000000
 <Feb04-2014> <15:54:16>  >>>> CORORT
 <Feb04-2014> <15:54:16>  >>>> FITINT
 <Feb04-2014> <15:54:16>  >>>> CLSMAT
 <Feb04-2014> <15:54:16>  >>>> ORTHON
 <Feb04-2014> <15:54:16>  >>>> GENPT
 <Feb04-2014> <15:54:16>  Acc.Num.Int.=  10.000
 <Feb04-2014> <15:54:16>  Block Length=  35
 <Feb04-2014> <15:54:16>  >>>> PTBAS
 <Feb04-2014> <15:54:16>  >>>> CYCLE
 <Feb04-2014> <15:54:16>    1
 <Feb04-2014> <15:54:16>    2  ErrMat   0.00250145  MaxEl  0.00250145
 <Feb04-2014> <15:54:16>    3  ErrMat   0.00043389  MaxEl -0.00043389
 <Feb04-2014> <15:54:16>    4  ErrMat   0.00002408  MaxEl  0.00002408
 <Feb04-2014> <15:54:16>    5  ErrMat   0.00000134  MaxEl -0.00000134
 <Feb04-2014> <15:54:17>    6  ErrMat   0.00000007  MaxEl  0.00000007
 <Feb04-2014> <15:54:17>    7  ErrMat   0.00000000  MaxEl  0.00000000
 <Feb04-2014> <15:54:17>  SCF converged
 <Feb04-2014> <15:54:17>    8  ErrMat   0.00000000  MaxEl  0.00000000
 <Feb04-2014> <15:54:17>   Solutions with partially occupied orbitals may not be
 <Feb04-2014> <15:54:17>   lowest in energy. You might consider lowering the
 <Feb04-2014> <15:54:17>   symmetry in the input and explicitly specifying integer
 <Feb04-2014> <15:54:17>   occupations. In that case always check that you obtain
 <Feb04-2014> <15:54:17>   an aufbau solution.
 <Feb04-2014> <15:54:17>  >>>> POPAN
 <Feb04-2014> <15:54:17>  >>>> DEBYE
 <Feb04-2014> <15:54:17>  NORMAL TERMINATION
 <Feb04-2014> <15:54:17>  END
 <Feb04-2014> <15:54:18>  ADF 2013.01  RunTime: Feb04-2014 15:54:18  Nodes: 1  Procs: 1
 <Feb04-2014> <15:54:18>  Carbon (DZP, 1s frozen)
 <Feb04-2014> <15:54:18>  RunType   : CREATE
 <Feb04-2014> <15:54:18>  Net Charge: 0 (Nuclei minus Electrons)
 <Feb04-2014> <15:54:18>  Symmetry  : ATOM
  Coordinates
    Atom         X           Y           Z   (Angstrom)
    1.C         0.000000    0.000000    0.000000
 <Feb04-2014> <15:54:19>  >>>> CORORT
 <Feb04-2014> <15:54:19>  >>>> FITINT
 <Feb04-2014> <15:54:19>  >>>> CLSMAT
 <Feb04-2014> <15:54:19>  >>>> ORTHON
 <Feb04-2014> <15:54:19>  >>>> GENPT
 <Feb04-2014> <15:54:19>  Acc.Num.Int.=  10.000
 <Feb04-2014> <15:54:19>  Block Length=  49
 <Feb04-2014> <15:54:19>  >>>> PTBAS
 <Feb04-2014> <15:54:19>  >>>> CYCLE
 <Feb04-2014> <15:54:19>    1
 <Feb04-2014> <15:54:19>    2  ErrMat   0.00369756  MaxEl  0.00305966
 <Feb04-2014> <15:54:19>    3  ErrMat   0.00278285  MaxEl -0.00229901
 <Feb04-2014> <15:54:19>    4  ErrMat   0.00000203  MaxEl  0.00000167
 <Feb04-2014> <15:54:19>    5  ErrMat   0.00000002  MaxEl -0.00000001
 <Feb04-2014> <15:54:19>    6  ErrMat   0.00000000  MaxEl  0.00000000
 <Feb04-2014> <15:54:19>  SCF converged
 <Feb04-2014> <15:54:19>    7  ErrMat   0.00000000  MaxEl  0.00000000
 <Feb04-2014> <15:54:19>   Solutions with partially occupied orbitals may not be
 <Feb04-2014> <15:54:19>   lowest in energy. You might consider lowering the
 <Feb04-2014> <15:54:19>   symmetry in the input and explicitly specifying integer
 <Feb04-2014> <15:54:19>   occupations. In that case always check that you obtain
 <Feb04-2014> <15:54:19>   an aufbau solution.
 <Feb04-2014> <15:54:19>  >>>> POPAN
 <Feb04-2014> <15:54:19>  >>>> DEBYE
 <Feb04-2014> <15:54:19>  NORMAL TERMINATION
 <Feb04-2014> <15:54:19>  END
 <Feb04-2014> <15:54:24>  ADF 2013.01  RunTime: Feb04-2014 15:54:24  Nodes: 1  Procs: 8
 <Feb04-2014> <15:54:24>  *** (NO TITLE) ***
 <Feb04-2014> <15:54:25>  RunType   : SINGLE POINT
 <Feb04-2014> <15:54:26>  Net Charge: 0 (Nuclei minus Electrons)
 <Feb04-2014> <15:54:26>  Symmetry  : NOSYM
 <Feb04-2014> <15:54:26>  >>>> FRAGM
  Coordinates
    Atom         X           Y           Z   (Angstrom)
    1.C        -1.074941   -0.725836    0.000000
    2.C         0.137436   -0.002036    0.000000
    3.H        -1.007614   -1.712652   -0.433659
    4.H        -1.911663   -0.198355   -0.433659
    5.H        -1.384046   -0.910374    1.018234
    6.H         0.974158   -0.529516    0.433659
    7.H         0.070109    0.984781    0.433659
    8.H         0.446540    0.182503   -1.018234
 <Feb04-2014> <15:54:28>  >>>> CORORT
 <Feb04-2014> <15:54:28>  >>>> FITINT
 <Feb04-2014> <15:54:29>  >>>> CLSMAT
 <Feb04-2014> <15:54:29>  >>>> ORTHON
 <Feb04-2014> <15:54:29>  >>>> GENPT
 <Feb04-2014> <15:54:30>  Block Length= 128
 <Feb04-2014> <15:54:30>  >>>> PTBAS
 <Feb04-2014> <15:54:30>  >>>> CYCLE
 <Feb04-2014> <15:54:30>    1
 <Feb04-2014> <15:54:31>    2  ErrMat   0.98721083  MaxEl  0.25159673
 <Feb04-2014> <15:54:31>    3  ErrMat   0.50889359  MaxEl  0.12266319
 <Feb04-2014> <15:54:32>    4  ErrMat   0.07668213  MaxEl -0.01515141
 <Feb04-2014> <15:54:32>    5  ErrMat   0.00888260  MaxEl  0.00169634
 <Feb04-2014> <15:54:32>    6  ErrMat   0.00069464  MaxEl  0.00018666
 <Feb04-2014> <15:54:33>    7  ErrMat   0.00003507  MaxEl -0.00000845
 <Feb04-2014> <15:54:33>    8  ErrMat   0.00000918  MaxEl  0.00000289
 <Feb04-2014> <15:54:33>    9  ErrMat   0.00000035  MaxEl  0.00000008
 <Feb04-2014> <15:54:33>  SCF converged
 <Feb04-2014> <15:54:34>   10  ErrMat   0.00000004  MaxEl  0.00000001
 <Feb04-2014> <15:54:34>  >>>> TOTEN
 <Feb04-2014> <15:54:35>  >>>> POPAN
 <Feb04-2014> <15:54:35>  >>>> DEBYE
 <Feb04-2014> <15:54:35>  >>>> AMETS
 <Feb04-2014> <15:54:35>   Bond Energy          -1.46634649 a.u.
 <Feb04-2014> <15:54:35>   Bond Energy         -39.90131819 eV
 <Feb04-2014> <15:54:35>   Bond Energy        -920.15       kcal/mol
 <Feb04-2014> <15:54:35>  >>>> POPUL
 <Feb04-2014> <15:54:36>  NORMAL TERMINATION
 <Feb04-2014> <15:54:36>  END
 <Feb04-2014> <15:54:40>  NMR 2013.01  RunTime: Feb04-2014 15:54:40  Nodes: 1  Procs: 8
 <Feb04-2014> <15:54:41>  >>>> RDEIGX
 <Feb04-2014> <15:54:41>  >>>> B1COR
 <Feb04-2014> <15:54:41>  >>>> XSIG
 <Feb04-2014> <15:54:42>  >>>> XSIGP
 <Feb04-2014> <15:54:42>  >>>> AOPKK
 <Feb04-2014> <15:54:42>  >>>> XSIGD
 <Feb04-2014> <15:54:42>  NMR Shielding ADF-GUI atom   C(1):         194.47 ppm
 <Feb04-2014> <15:54:42>  >>>> XSIGP
 <Feb04-2014> <15:54:42>  >>>> AOPKK
 <Feb04-2014> <15:54:42>  >>>> XSIGD
 <Feb04-2014> <15:54:42>  NMR Shielding ADF-GUI atom   C(2):         194.47 ppm
 <Feb04-2014> <15:54:42>  >>>> XSIGP
 <Feb04-2014> <15:54:43>  >>>> AOPKK
 <Feb04-2014> <15:54:43>  >>>> XSIGD
 <Feb04-2014> <15:54:43>  NMR Shielding ADF-GUI atom   H(3):          31.32 ppm
 <Feb04-2014> <15:54:43>  >>>> XSIGP
 <Feb04-2014> <15:54:43>  >>>> AOPKK
 <Feb04-2014> <15:54:43>  >>>> XSIGD
 <Feb04-2014> <15:54:43>  NMR Shielding ADF-GUI atom   H(4):          31.32 ppm
 <Feb04-2014> <15:54:43>  >>>> XSIGP
 <Feb04-2014> <15:54:43>  >>>> AOPKK
 <Feb04-2014> <15:54:43>  >>>> XSIGD
 <Feb04-2014> <15:54:44>  NMR Shielding ADF-GUI atom   H(5):          31.45 ppm
 <Feb04-2014> <15:54:44>  >>>> XSIGP
 <Feb04-2014> <15:54:44>  >>>> AOPKK
 <Feb04-2014> <15:54:44>  >>>> XSIGD
 <Feb04-2014> <15:54:44>  NMR Shielding ADF-GUI atom   H(6):          31.32 ppm
 <Feb04-2014> <15:54:44>  >>>> XSIGP
 <Feb04-2014> <15:54:44>  >>>> AOPKK
 <Feb04-2014> <15:54:44>  >>>> XSIGD
 <Feb04-2014> <15:54:45>  NMR Shielding ADF-GUI atom   H(7):          31.32 ppm
 <Feb04-2014> <15:54:45>  >>>> XSIGP
 <Feb04-2014> <15:54:45>  >>>> AOPKK
 <Feb04-2014> <15:54:45>  >>>> XSIGD
 <Feb04-2014> <15:54:45>  NMR Shielding ADF-GUI atom   H(8):          31.45 ppm
 <Feb04-2014> <15:54:45>  NORMAL TERMINATION
 <Feb04-2014> <15:54:45>  END
 <Feb04-2014> <15:54:50>  CPL 2013.01  RunTime: Feb04-2014 15:54:50  Nodes: 1  Procs: 8
 <Feb04-2014> <15:54:51>  >>>> GENPT
 <Feb04-2014> <15:54:51>  Block Length= 128
 <Feb04-2014> <15:54:52>  >>>> JCOUPL
 <Feb04-2014> <15:54:52>  Computation for perturbing ADF-GUI atom: C(1)
 <Feb04-2014> <15:54:52>  >>>> FCCPL
 <Feb04-2014> <15:54:53>  >>>> FCPT1
 <Feb04-2014> <15:54:53>  WARNING: Unsupported LDA potential detected. Please check your output
 <Feb04-2014> <15:54:53>     1 V(1)  0.2467722E+00
 <Feb04-2014> <15:54:53>     2 V(1)  0.6744850E+00
 <Feb04-2014> <15:54:53>     3 V(1)  0.6758763E+00
 <Feb04-2014> <15:54:54>     4 V(1)  0.6760460E+00
 <Feb04-2014> <15:54:54>     5 V(1)  0.6760354E+00
 <Feb04-2014> <15:54:54>   convergence reached
 <Feb04-2014> <15:54:54>  ADF-GUI atoms  C(1) -  C(2):        k=     180.984 , j=     137.514
 <Feb04-2014> <15:54:54>  ADF-GUI atoms  C(1) -  H(3):        k=      35.352 , j=     106.799
 <Feb04-2014> <15:54:54>  ADF-GUI atoms  C(1) -  H(4):        k=      35.351 , j=     106.796
 <Feb04-2014> <15:54:54>  ADF-GUI atoms  C(1) -  H(5):        k=      28.957 , j=      87.482
 <Feb04-2014> <15:54:54>  ADF-GUI atoms  C(1) -  H(6):        k=      -1.166 , j=      -3.523
 <Feb04-2014> <15:54:54>  ADF-GUI atoms  C(1) -  H(7):        k=      -1.166 , j=      -3.524
 <Feb04-2014> <15:54:54>  ADF-GUI atoms  C(1) -  H(8):        k=      -2.181 , j=      -6.590
 <Feb04-2014> <15:54:54>  Computation for perturbing ADF-GUI atom: C(2)
 <Feb04-2014> <15:54:54>  >>>> FCCPL
 <Feb04-2014> <15:54:55>  >>>> FCPT1
 <Feb04-2014> <15:54:55>  WARNING: Unsupported LDA potential detected. Please check your output
 <Feb04-2014> <15:54:55>     1 V(1)  0.2467722E+00
 <Feb04-2014> <15:54:56>     2 V(1)  0.6744851E+00
 <Feb04-2014> <15:54:56>     3 V(1)  0.6758763E+00
 <Feb04-2014> <15:54:56>     4 V(1)  0.6760460E+00
 <Feb04-2014> <15:54:56>     5 V(1)  0.6760354E+00
 <Feb04-2014> <15:54:56>   convergence reached
 <Feb04-2014> <15:54:56>  ADF-GUI atoms  C(2) -  C(1):        k=     180.984 , j=     137.514
 <Feb04-2014> <15:54:56>  ADF-GUI atoms  C(2) -  H(3):        k=      -1.166 , j=      -3.524
 <Feb04-2014> <15:54:56>  ADF-GUI atoms  C(2) -  H(4):        k=      -1.166 , j=      -3.523
 <Feb04-2014> <15:54:56>  ADF-GUI atoms  C(2) -  H(5):        k=      -2.181 , j=      -6.590
 <Feb04-2014> <15:54:56>  ADF-GUI atoms  C(2) -  H(6):        k=      35.351 , j=     106.796
 <Feb04-2014> <15:54:56>  ADF-GUI atoms  C(2) -  H(7):        k=      35.352 , j=     106.799
 <Feb04-2014> <15:54:56>  ADF-GUI atoms  C(2) -  H(8):        k=      28.957 , j=      87.482
 <Feb04-2014> <15:54:56>  Computation for perturbing ADF-GUI atom: H(3)
 <Feb04-2014> <15:54:57>  >>>> FCCPL
 <Feb04-2014> <15:54:58>  >>>> FCPT1
 <Feb04-2014> <15:54:58>  WARNING: Unsupported LDA potential detected. Please check your output
 <Feb04-2014> <15:54:58>     1 V(1)  0.1063269E+00
 <Feb04-2014> <15:54:58>     2 V(1)  0.1285385E+00
 <Feb04-2014> <15:54:58>     3 V(1)  0.1292938E+00
 <Feb04-2014> <15:54:58>     4 V(1)  0.1292894E+00
 <Feb04-2014> <15:54:58>   convergence reached
 <Feb04-2014> <15:54:59>  ADF-GUI atoms  H(3) -  C(1):        k=      35.360 , j=     106.823
 <Feb04-2014> <15:54:59>  ADF-GUI atoms  H(3) -  C(2):        k=      -1.159 , j=      -3.500
 <Feb04-2014> <15:54:59>  ADF-GUI atoms  H(3) -  H(4):        k=      -1.146 , j=     -13.771
 <Feb04-2014> <15:54:59>  ADF-GUI atoms  H(3) -  H(5):        k=      -1.634 , j=     -19.623
 <Feb04-2014> <15:54:59>  ADF-GUI atoms  H(3) -  H(6):        k=       0.302 , j=       3.633
 <Feb04-2014> <15:54:59>  ADF-GUI atoms  H(3) -  H(7):        k=       1.728 , j=      20.756
 <Feb04-2014> <15:54:59>  ADF-GUI atoms  H(3) -  H(8):        k=       0.358 , j=       4.300
 <Feb04-2014> <15:54:59>  Computation for perturbing ADF-GUI atom: H(4)
 <Feb04-2014> <15:54:59>  >>>> FCCPL
 <Feb04-2014> <15:55:00>  >>>> FCPT1
 <Feb04-2014> <15:55:00>  WARNING: Unsupported LDA potential detected. Please check your output
 <Feb04-2014> <15:55:00>     1 V(1)  0.1063272E+00
 <Feb04-2014> <15:55:00>     2 V(1)  0.1285374E+00
 <Feb04-2014> <15:55:00>     3 V(1)  0.1292927E+00
 <Feb04-2014> <15:55:00>     4 V(1)  0.1292883E+00
 <Feb04-2014> <15:55:00>   convergence reached
 <Feb04-2014> <15:55:00>  ADF-GUI atoms  H(4) -  C(1):        k=      35.359 , j=     106.820
 <Feb04-2014> <15:55:00>  ADF-GUI atoms  H(4) -  C(2):        k=      -1.158 , j=      -3.500
 <Feb04-2014> <15:55:01>  ADF-GUI atoms  H(4) -  H(3):        k=      -1.146 , j=     -13.771
 <Feb04-2014> <15:55:01>  ADF-GUI atoms  H(4) -  H(5):        k=      -1.634 , j=     -19.625
 <Feb04-2014> <15:55:01>  ADF-GUI atoms  H(4) -  H(6):        k=       1.728 , j=      20.760
 <Feb04-2014> <15:55:01>  ADF-GUI atoms  H(4) -  H(7):        k=       0.302 , j=       3.633
 <Feb04-2014> <15:55:01>  ADF-GUI atoms  H(4) -  H(8):        k=       0.358 , j=       4.302
 <Feb04-2014> <15:55:01>  Computation for perturbing ADF-GUI atom: H(5)
 <Feb04-2014> <15:55:01>  >>>> FCCPL
 <Feb04-2014> <15:55:01>  >>>> FCPT1
 <Feb04-2014> <15:55:01>  WARNING: Unsupported LDA potential detected. Please check your output
 <Feb04-2014> <15:55:01>     1 V(1)  0.1079288E+00
 <Feb04-2014> <15:55:02>     2 V(1)  0.1304684E+00
 <Feb04-2014> <15:55:02>     3 V(1)  0.1312469E+00
 <Feb04-2014> <15:55:02>     4 V(1)  0.1312450E+00
 <Feb04-2014> <15:55:02>   convergence reached
 <Feb04-2014> <15:55:02>  ADF-GUI atoms  H(5) -  C(1):        k=      28.965 , j=      87.505
 <Feb04-2014> <15:55:02>  ADF-GUI atoms  H(5) -  C(2):        k=      -2.173 , j=      -6.565
 <Feb04-2014> <15:55:02>  ADF-GUI atoms  H(5) -  H(3):        k=      -1.634 , j=     -19.623
 <Feb04-2014> <15:55:02>  ADF-GUI atoms  H(5) -  H(4):        k=      -1.634 , j=     -19.625
 <Feb04-2014> <15:55:02>  ADF-GUI atoms  H(5) -  H(6):        k=       0.358 , j=       4.302
 <Feb04-2014> <15:55:02>  ADF-GUI atoms  H(5) -  H(7):        k=       0.358 , j=       4.300
 <Feb04-2014> <15:55:02>  ADF-GUI atoms  H(5) -  H(8):        k=       1.799 , j=      21.614
 <Feb04-2014> <15:55:02>  Computation for perturbing ADF-GUI atom: H(6)
 <Feb04-2014> <15:55:02>  >>>> FCCPL
 <Feb04-2014> <15:55:03>  >>>> FCPT1
 <Feb04-2014> <15:55:03>  WARNING: Unsupported LDA potential detected. Please check your output
 <Feb04-2014> <15:55:03>     1 V(1)  0.1063272E+00
 <Feb04-2014> <15:55:03>     2 V(1)  0.1285374E+00
 <Feb04-2014> <15:55:03>     3 V(1)  0.1292927E+00
 <Feb04-2014> <15:55:03>     4 V(1)  0.1292883E+00
 <Feb04-2014> <15:55:03>   convergence reached
 <Feb04-2014> <15:55:03>  ADF-GUI atoms  H(6) -  C(1):        k=      -1.158 , j=      -3.500
 <Feb04-2014> <15:55:03>  ADF-GUI atoms  H(6) -  C(2):        k=      35.359 , j=     106.820
 <Feb04-2014> <15:55:03>  ADF-GUI atoms  H(6) -  H(3):        k=       0.302 , j=       3.633
 <Feb04-2014> <15:55:03>  ADF-GUI atoms  H(6) -  H(4):        k=       1.728 , j=      20.760
 <Feb04-2014> <15:55:03>  ADF-GUI atoms  H(6) -  H(5):        k=       0.358 , j=       4.302
 <Feb04-2014> <15:55:03>  ADF-GUI atoms  H(6) -  H(7):        k=      -1.146 , j=     -13.771
 <Feb04-2014> <15:55:03>  ADF-GUI atoms  H(6) -  H(8):        k=      -1.634 , j=     -19.625
 <Feb04-2014> <15:55:03>  Computation for perturbing ADF-GUI atom: H(7)
 <Feb04-2014> <15:55:03>  >>>> FCCPL
 <Feb04-2014> <15:55:04>  >>>> FCPT1
 <Feb04-2014> <15:55:04>  WARNING: Unsupported LDA potential detected. Please check your output
 <Feb04-2014> <15:55:04>     1 V(1)  0.1063269E+00
 <Feb04-2014> <15:55:04>     2 V(1)  0.1285385E+00
 <Feb04-2014> <15:55:04>     3 V(1)  0.1292938E+00
 <Feb04-2014> <15:55:04>     4 V(1)  0.1292894E+00
 <Feb04-2014> <15:55:04>   convergence reached
 <Feb04-2014> <15:55:04>  ADF-GUI atoms  H(7) -  C(1):        k=      -1.159 , j=      -3.500
 <Feb04-2014> <15:55:04>  ADF-GUI atoms  H(7) -  C(2):        k=      35.360 , j=     106.823
 <Feb04-2014> <15:55:04>  ADF-GUI atoms  H(7) -  H(3):        k=       1.728 , j=      20.756
 <Feb04-2014> <15:55:04>  ADF-GUI atoms  H(7) -  H(4):        k=       0.302 , j=       3.633
 <Feb04-2014> <15:55:04>  ADF-GUI atoms  H(7) -  H(5):        k=       0.358 , j=       4.300
 <Feb04-2014> <15:55:04>  ADF-GUI atoms  H(7) -  H(6):        k=      -1.146 , j=     -13.771
 <Feb04-2014> <15:55:04>  ADF-GUI atoms  H(7) -  H(8):        k=      -1.634 , j=     -19.623
 <Feb04-2014> <15:55:04>  Computation for perturbing ADF-GUI atom: H(8)
 <Feb04-2014> <15:55:04>  >>>> FCCPL
 <Feb04-2014> <15:55:05>  >>>> FCPT1
 <Feb04-2014> <15:55:05>  WARNING: Unsupported LDA potential detected. Please check your output
 <Feb04-2014> <15:55:06>     1 V(1)  0.1079288E+00
 <Feb04-2014> <15:55:06>     2 V(1)  0.1304684E+00
 <Feb04-2014> <15:55:06>     3 V(1)  0.1312469E+00
 <Feb04-2014> <15:55:06>     4 V(1)  0.1312450E+00
 <Feb04-2014> <15:55:06>   convergence reached
 <Feb04-2014> <15:55:06>  ADF-GUI atoms  H(8) -  C(1):        k=      -2.173 , j=      -6.565
 <Feb04-2014> <15:55:06>  ADF-GUI atoms  H(8) -  C(2):        k=      28.965 , j=      87.505
 <Feb04-2014> <15:55:06>  ADF-GUI atoms  H(8) -  H(3):        k=       0.358 , j=       4.300
 <Feb04-2014> <15:55:06>  ADF-GUI atoms  H(8) -  H(4):        k=       0.358 , j=       4.302
 <Feb04-2014> <15:55:06>  ADF-GUI atoms  H(8) -  H(5):        k=       1.799 , j=      21.614
 <Feb04-2014> <15:55:06>  ADF-GUI atoms  H(8) -  H(6):        k=      -1.634 , j=     -19.625
 <Feb04-2014> <15:55:06>  ADF-GUI atoms  H(8) -  H(7):        k=      -1.634 , j=     -19.623
 <Feb04-2014> <15:55:06>  NORMAL TERMINATION
 <Feb04-2014> <15:55:06>  END
