
                                 *****************
                                 * O   R   C   A *
                                 *****************

           --- An Ab Initio, DFT and Semiempirical electronic structure package ---

                  #######################################################
                  #                        -***-                        #
                  #  Department of molecular theory and spectroscopy    #
                  #              Directorship: Frank Neese              #
                  # Max Planck Institute for Chemical Energy Conversion #
                  #                  D-45470 Muelheim/Ruhr              #
                  #                       Germany                       #
                  #                                                     #
                  #                  All rights reserved                #
                  #                        -***-                        #
                  #######################################################


                         Program Version 3.0.2 -  RELEASE  -


 With contributions from (in alphabetic order):
   Ute Becker             : Parallelization
   Dmytro Bykov           : SCF Hessian
   Dmitry Ganyushin       : Spin-Orbit,Spin-Spin,Magnetic field MRCI
   Andreas Hansen         : Spin unrestricted coupled pair/coupled cluster methods
   Dimitrios Liakos       : Extrapolation schemes; parallel MDCI
   Robert Izsak           : Overlap fitted RIJCOSX, COSX-SCS-MP3
   Christian Kollmar      : KDIIS, OOCD, Brueckner-CCSD(T), CCSD density
   Simone Kossmann        : Meta GGA functionals, TD-DFT gradient, OOMP2, MP2 Hessian
   Taras Petrenko         : DFT Hessian,TD-DFT gradient, ASA and ECA modules, normal mode analysis, Resonance Raman, ABS, FL, XAS/XES, NRVS
   Christoph Reimann      : Effective Core Potentials
   Michael Roemelt        : Restricted open shell CIS
   Christoph Riplinger    : Improved optimizer, TS searches, QM/MM, DLPNO-CCSD
   Barbara Sandhoefer     : DKH picture change effects
   Igor Schapiro          : Molecular dynamics
   Kantharuban Sivalingam : CASSCF convergence, NEVPT2
   Boris Wezisla          : Elementary symmetry handling
   Frank Wennmohs         : Technical directorship


 We gratefully acknowledge several colleagues who have allowed us to
 interface, adapt or use parts of their codes:
   Stefan Grimme, W. Hujo, H. Kruse, T. Risthaus : VdW corrections, initial TS optimization,
                                                   DFT functionals, gCP
   Ed Valeev                                     : LibInt (2-el integral package), F12 methods
   Garnet Chan, S. Sharma, R. Olivares           : DMRG
   Ulf Ekstrom                                   : XCFun DFT Library
   Mihaly Kallay                                 : mrcc  (arbitrary order and MRCC methods)
   Andreas Klamt, Michael Diedenhofen            : otool_cosmo (COSMO solvation model)
   Frank Weinhold                                : gennbo (NPA and NBO analysis)
   Christopher J. Cramer and Donald G. Truhlar   : smd solvation model


 Your calculation uses the libint2 library for the computation of 2-el integrals
 For citations please refer to: http://libint.valeyev.net

 This ORCA versions uses:
   CBLAS   interface :  Fast vector & matrix operations
   LAPACKE interface :  Fast linear algebra routines
   SCALAPACK package :  Parallel linear algebra routines


Your calculation utilizes the basis: Ahlrichs-VDZ
Cite in your paper:
H - Kr: A. Schaefer, H. Horn and R. Ahlrichs, J. Chem. Phys. 97, 2571 (1992).

Your calculation utilizes the basis: Ahlrichs SVPalls1+f
Cite in your paper:
Rb - Xe: A. Schaefer, C. Huber and R. Ahlrichs, J. Chem. Phys. 100, 5829 (1994).

Your calculation utilizes pol. fcns from basis: Ahlrichs polarization
Cite in your paper:
H - Kr: R. Ahlrichs and coworkers, unpublished

================================================================================
                                        WARNINGS
                       Please study these warnings very carefully!
================================================================================

WARNING: The RI method has been chosen with no auxiliary basis (AUX or GTOAUX in BASIS block)
Your calculation utilizes aux bases from the TurboMole library
Cite in your paper:
The Ahlrichs auxiliary basis sets were obtained from the TurboMole
basis set library under ftp.chemie.uni-karlsruhe.de/pub/jbasen
H - Ba; Hf - At:
      1) K. Eichkorn, O. Treutler, H. Ohm, M. Haser and R. Ahlrichs,
         Chem. Phys. Letters 240, 283 (1995).
      2) K. Eichkorn, F. Weigend, O. Treutler, R. Ahlrichs,
         Theor. Chem. Acc. 97, 119 (1997)
Rb-I : uncontracted bases constructed by FN 'by inspection' (01/2002)


        Standard SV/J expansion basis used (GTOAUX=VDZ_J)

Now building the actual basis set

WARNING: Geometry Optimization
  ===> : Switching off AutoStart
         For restart on a previous wavefunction, please use MOREAD


INFO   : the flag for use of LIBINT has been found!

================================================================================
                                       INPUT FILE
================================================================================
NAME = N-BiradOpt.inp
|  1> #
|  2> # g-tensor Calculation for an organic radical anion
|  3> #
|  4> #
|  5> #%pal nprocs 4 # any number (positive integer)
|  6> #end
|  7> 
|  8> ! UKS BP SV(P) OPT TightSCF Grid4 NoFinalGrid Direct
|  9> * xyz 0 3
| 10> N          2.82596       -6.61797       -4.97003
| 11> C          2.85240       -6.69693       -3.48227
| 12> C          1.83097       -5.74047       -5.65051
| 13> C          2.76051       -5.27429       -2.87496
| 14> C          1.77317       -4.35290       -4.95725
| 15> C          1.57183       -4.46524       -3.42914
| 16> N          1.56178       -3.13881       -2.77351
| 17> C          2.30981       -5.52004       -7.10289
| 18> C          0.41226       -6.36618       -5.73411
| 19> C          4.21192       -7.29863       -3.06179
| 20> C          1.75139       -7.61945       -2.89231
| 21> O          2.81990       -7.86357       -5.51602
| 22> C          0.67042       -0.88428       -2.41309
| 23> C          0.47348       -2.21424       -3.16414
| 24> C         -0.41381        0.16911       -2.75778
| 25> C         -0.92096       -2.76155       -2.78116
| 26> N         -1.77184       -0.42366       -2.59339
| 27> C         -2.06407       -1.77836       -3.14345
| 28> O         -2.73099        0.46371       -2.97042
| 29> C         -0.16919        0.77181       -4.16721
| 30> C         -0.27676        1.32919       -1.74602
| 31> C         -3.35589       -2.29599       -2.47147
| 32> C         -2.32133       -1.78045       -4.67457
| 33> H          2.70663       -5.34463       -1.76566
| 34> H          3.68757       -4.70837       -3.12315
| 35> H          2.73492       -3.81626       -5.12247
| 36> H          0.97187       -3.75701       -5.43988
| 37> H          0.63543       -5.00006       -3.18792
| 38> H          1.52112       -3.28184       -1.73619
| 39> H          1.62366       -4.83837       -7.65150
| 40> H          3.32674       -5.07147       -7.11304
| 41> H          2.35600       -6.48141       -7.65805
| 42> H         -0.25677       -5.70805       -6.33005
| 43> H          0.43972       -7.35590       -6.23697
| 44> H         -0.08919       -6.48043       -4.76538
| 45> H          4.33161       -8.32972       -3.45833
| 46> H          5.04906       -6.68267       -3.45547
| 47> H          4.30374       -7.34287       -1.95444
| 48> H          1.87802       -7.70196       -1.79091
| 49> H          1.82061       -8.64456       -3.31346
| 50> H          0.72723       -7.25508       -3.03643
| 51> H          0.61660       -1.11027       -1.32350
| 52> H          1.68354       -0.46988       -2.61332
| 53> H          0.53785       -2.01269       -4.24782
| 54> H         -1.12949       -3.73711       -3.26663
| 55> H         -0.91727       -2.92913       -1.68016
| 56> H         -0.13974        0.03431       -4.97800
| 57> H         -0.93729        1.53507       -4.41399
| 58> H          0.82176        1.27468       -4.19607
| 59> H         -1.02353        2.12654       -1.94888
| 60> H         -0.44268        0.96373       -0.70950
| 61> H          0.73633        1.78499       -1.79549
| 62> H         -4.21993       -1.63853       -2.70706
| 63> H         -3.60150       -3.32411       -2.81693
| 64> H         -3.23685       -2.32045       -1.36675
| 65> H         -1.44179       -1.53354       -5.28129
| 66> H         -2.62350       -2.79761       -5.00615
| 67> H         -3.14387       -1.08434       -4.94310
| 68> *
| 69> %eprnmr gtensor 2
| 70> 	dtensor ss # SS and SO parts
| 71> end 
| 72> 
| 73> ! PDBFILE
| 74> ! XYZFILE
| 75> 
| 76>                          ****END OF INPUT****
================================================================================

                       *****************************
                       * Geometry Optimization Run *
                       *****************************

Geometry optimization settings:
Update method            Update   .... BFGS
Choice of coordinates    CoordSys .... Redundant Internals
Initial Hessian          InHess   .... Almoef's Model

Convergence Tolerances:
Energy Change            TolE     ....  5.0000e-06 Eh
Max. Gradient            TolMAXG  ....  3.0000e-04 Eh/bohr
RMS Gradient             TolRMSG  ....  1.0000e-04 Eh/bohr
Max. Displacement        TolMAXD  ....  4.0000e-03 bohr
RMS Displacement         TolRMSD  ....  2.0000e-03 bohr

------------------------------------------------------------------------------
                        ORCA OPTIMIZATION COORDINATE SETUP
------------------------------------------------------------------------------

The optimization will be done in new redundant internal coordinates
Making redundant internal coordinates   ...  (new redundants) done
Evaluating the initial hessian          ...  (Almloef) done
Evaluating the coordinates              ...  done
Calculating the B-matrix                .... done
Calculating the G-matrix                .... done
Diagonalizing the G-matrix              .... done
Small eigenvalue found = 2.120e-03
Small eigenvalue found = 6.240e-03
Small eigenvalue found = 7.930e-03
Small eigenvalue found = 2.045e-02
Small eigenvalue found = 2.698e-02
The first mode is                       ....  188
The number of degrees of freedom        ....  168

    -----------------------------------------------------------------
                    Redundant Internal Coordinates


    -----------------------------------------------------------------
         Definition                    Initial Value    Approx d2E/dq
    -----------------------------------------------------------------
      1. B(C   1,N   0)                  1.4901         0.387428   
      2. B(C   2,N   0)                  1.4910         0.386140   
      3. B(C   3,C   1)                  1.5496         0.347657   
      4. B(C   4,C   2)                  1.5522         0.344327   
      5. B(C   5,C   4)                  1.5454         0.353020   
      6. B(C   5,C   3)                  1.5410         0.358798   
      7. B(N   6,C   5)                  1.4797         0.402571   
      8. B(C   7,C   2)                  1.5451         0.353437   
      9. B(C   8,C   2)                  1.5528         0.343538   
     10. B(C   9,C   1)                  1.5450         0.353497   
     11. B(C  10,C   1)                  1.5528         0.343506   
     12. B(O  11,N   0)                  1.3600         0.559551   
     13. B(C  13,C  12)                  1.5400         0.360076   
     14. B(C  13,N   6)                  1.4805         0.401349   
     15. B(C  14,C  12)                  1.5505         0.346496   
     16. B(C  15,C  13)                  1.5462         0.352012   
     17. B(N  16,C  14)                  1.4909         0.386340   
     18. B(C  17,N  16)                  1.4910         0.386087   
     19. B(C  17,C  15)                  1.5507         0.346242   
     20. B(O  18,N  16)                  1.3600         0.559638   
     21. B(C  19,C  14)                  1.5523         0.344214   
     22. B(C  20,C  14)                  1.5454         0.353041   
     23. B(C  21,C  17)                  1.5454         0.353012   
     24. B(C  22,C  17)                  1.5526         0.343833   
     25. B(H  23,C   3)                  1.1128         0.331127   
     26. B(H  24,C   3)                  1.1141         0.329543   
     27. B(H  25,C   4)                  1.1137         0.330120   
     28. B(H  26,C   4)                  1.1091         0.335702   
     29. B(H  27,C   5)                  1.1050         0.340771   
     30. B(H  28,N   6)                  1.0479         0.376435   
     31. B(H  29,C   7)                  1.1120         0.332194   
     32. B(H  30,C   7)                  1.1115         0.332735   
     33. B(H  31,C   7)                  1.1111         0.333228   
     34. B(H  32,C   8)                  1.1117         0.332506   
     35. B(H  33,C   8)                  1.1105         0.334000   
     36. B(H  34,C   8)                  1.0968         0.351232   
     37. B(H  35,C   9)                  1.1112         0.333146   
     38. B(H  36,C   9)                  1.1114         0.332883   
     39. B(H  37,C   9)                  1.1120         0.332104   
     40. B(H  38,C  10)                  1.1117         0.332482   
     41. B(H  39,C  10)                  1.1104         0.334088   
     42. B(H  40,C  10)                  1.0966         0.351528   
     43. B(H  41,C  12)                  1.1141         0.329613   
     44. B(H  42,C  12)                  1.1128         0.331218   
     45. B(H  43,C  13)                  1.1041         0.341870   
     46. B(H  44,C  15)                  1.1095         0.335266   
     47. B(H  45,C  15)                  1.1137         0.330090   
     48. B(H  46,C  19)                  1.0964         0.351696   
     49. B(H  47,C  19)                  1.1106         0.333848   
     50. B(H  48,C  19)                  1.1116         0.332609   
     51. B(H  49,C  20)                  1.1111         0.333219   
     52. B(H  50,C  20)                  1.1115         0.332735   
     53. B(H  51,C  20)                  1.1120         0.332137   
     54. B(H  52,C  21)                  1.1110         0.333364   
     55. B(H  53,C  21)                  1.1121         0.332058   
     56. B(H  54,C  21)                  1.1114         0.332894   
     57. B(H  55,C  22)                  1.0967         0.351396   
     58. B(H  56,C  22)                  1.1117         0.332514   
     59. B(H  57,C  22)                  1.1105         0.333955   
     60. A(C   1,N   0,O  11)          110.6327         0.384640   
     61. A(C   2,N   0,O  11)          110.6601         0.384417   
     62. A(C   1,N   0,C   2)          119.9145         0.363133   
     63. A(N   0,C   1,C   3)          109.9748         0.358917   
     64. A(C   3,C   1,C   9)          107.6414         0.355569   
     65. A(C   9,C   1,C  10)          106.8063         0.354845   
     66. A(N   0,C   1,C  10)          113.4675         0.358184   
     67. A(C   3,C   1,C  10)          110.7613         0.353845   
     68. A(N   0,C   1,C   9)          107.9371         0.359937   
     69. A(C   7,C   2,C   8)          106.8596         0.354840   
     70. A(C   4,C   2,C   8)          110.5020         0.353274   
     71. A(N   0,C   2,C   7)          107.8279         0.359722   
     72. A(N   0,C   2,C   8)          113.3983         0.357987   
     73. A(C   4,C   2,C   7)          107.6884         0.354979   
     74. A(N   0,C   2,C   4)          110.3115         0.358127   
     75. A(C   5,C   3,H  24)          107.1611         0.317546   
     76. A(C   1,C   3,H  24)          109.2498         0.315920   
     77. A(C   1,C   3,H  23)          109.6040         0.316166   
     78. A(H  23,C   3,H  24)          107.1246         0.283108   
     79. A(C   5,C   3,H  23)          110.7520         0.317794   
     80. A(C   1,C   3,C   5)          112.7563         0.356468   
     81. A(C   2,C   4,H  25)          109.4111         0.315516   
     82. A(C   2,C   4,H  26)          108.2305         0.316377   
     83. A(C   2,C   4,C   5)          112.4268         0.354907   
     84. A(C   5,C   4,H  25)          107.1118         0.316798   
     85. A(H  25,C   4,H  26)          107.4860         0.283789   
     86. A(C   5,C   4,H  26)          112.0376         0.317664   
     87. A(N   6,C   5,H  27)          109.3533         0.323419   
     88. A(C   3,C   5,H  27)          108.7270         0.319285   
     89. A(C   4,C   5,H  27)          111.1885         0.318441   
     90. A(C   3,C   5,C   4)          107.0538         0.357397   
     91. A(C   4,C   5,N   6)          111.9538         0.362215   
     92. A(C   3,C   5,N   6)          108.4540         0.363220   
     93. A(C  13,N   6,H  28)          108.5360         0.325803   
     94. A(C   5,N   6,H  28)          108.4527         0.325966   
     95. A(C   5,N   6,C  13)          116.6102         0.367951   
     96. A(H  30,C   7,H  31)          107.8534         0.283811   
     97. A(H  29,C   7,H  31)          108.0327         0.283739   
     98. A(C   2,C   7,H  31)          111.0456         0.317342   
     99. A(H  29,C   7,H  30)          108.2190         0.283674   
    100. A(C   2,C   7,H  30)          110.4689         0.317266   
    101. A(C   2,C   7,H  29)          111.0999         0.317182   
    102. A(C   2,C   8,H  32)          109.8857         0.315767   
    103. A(H  32,C   8,H  34)          105.0697         0.286114   
    104. A(H  33,C   8,H  34)          108.5677         0.286315   
    105. A(C   2,C   8,H  34)          114.3391         0.318597   
    106. A(H  32,C   8,H  33)          107.4432         0.283883   
    107. A(C   2,C   8,H  33)          111.1566         0.315998   
    108. A(H  36,C   9,H  37)          108.2151         0.283682   
    109. A(H  35,C   9,H  37)          108.0323         0.283717   
    110. A(C   1,C   9,H  37)          111.0481         0.317177   
    111. A(H  35,C   9,H  36)          107.8625         0.283820   
    112. A(C   1,C   9,H  36)          110.5212         0.317298   
    113. A(C   1,C   9,H  35)          111.0408         0.317338   
    114. A(H  39,C  10,H  40)          108.3689         0.286364   
    115. A(C   1,C  10,H  40)          114.5116         0.318636   
    116. A(H  38,C  10,H  39)          107.4658         0.283891   
    117. A(C   1,C  10,H  39)          111.1097         0.316006   
    118. A(C   1,C  10,H  38)          109.8602         0.315759   
    119. A(H  38,C  10,H  40)          105.1445         0.286149   
    120. A(C  13,C  12,C  14)          112.8849         0.356481   
    121. A(H  41,C  12,H  42)          107.1882         0.283130   
    122. A(C  13,C  12,H  42)          110.5049         0.317992   
    123. A(C  14,C  12,H  42)          110.0997         0.316008   
    124. A(C  14,C  12,H  41)          108.7511         0.315759   
    125. A(C  13,C  12,H  41)          107.1941         0.317741   
    126. A(C  12,C  13,C  15)          107.4712         0.357439   
    127. A(N   6,C  13,C  15)          112.1196         0.361850   
    128. A(C  15,C  13,H  43)          111.1183         0.318459   
    129. A(N   6,C  13,C  12)          108.4599         0.363252   
    130. A(C  12,C  13,H  43)          108.2736         0.319639   
    131. A(N   6,C  13,H  43)          109.2752         0.323429   
    132. A(C  12,C  14,N  16)          110.0195         0.358541   
    133. A(C  19,C  14,C  20)          106.7987         0.354891   
    134. A(N  16,C  14,C  20)          107.8823         0.359685   
    135. A(C  12,C  14,C  20)          107.6043         0.355289   
    136. A(N  16,C  14,C  19)          113.4559         0.358138   
    137. A(C  12,C  14,C  19)          110.8205         0.353768   
    138. A(C  13,C  15,C  17)          112.4897         0.355069   
    139. A(H  44,C  15,H  45)          107.5117         0.283728   
    140. A(C  17,C  15,H  45)          109.1971         0.315796   
    141. A(C  13,C  15,H  45)          107.1664         0.316646   
    142. A(C  17,C  15,H  44)          108.4654         0.316596   
    143. A(C  13,C  15,H  44)          111.8626         0.317449   
    144. A(C  17,N  16,O  18)          110.6297         0.384418   
    145. A(C  14,N  16,O  18)          110.6362         0.384462   
    146. A(C  14,N  16,C  17)          119.9406         0.362950   
    147. A(C  15,C  17,N  16)          110.2059         0.358456   
    148. A(C  21,C  17,C  22)          106.8491         0.354820   
    149. A(N  16,C  17,C  22)          113.4227         0.358031   
    150. A(C  15,C  17,C  22)          110.5911         0.353657   
    151. A(N  16,C  17,C  21)          107.9231         0.359640   
    152. A(C  15,C  17,C  21)          107.5925         0.355240   
    153. A(H  47,C  19,H  48)          107.4496         0.283876   
    154. A(H  46,C  19,H  48)          105.1379         0.286187   
    155. A(C  14,C  19,H  48)          109.8584         0.315884   
    156. A(H  46,C  19,H  47)          108.4532         0.286353   
    157. A(C  14,C  19,H  47)          111.0757         0.316075   
    158. A(C  14,C  19,H  46)          114.4878         0.318768   
    159. A(H  50,C  20,H  51)          108.1950         0.283667   
    160. A(H  49,C  20,H  51)          108.0617         0.283731   
    161. A(C  14,C  20,H  51)          111.0611         0.317115   
    162. A(H  49,C  20,H  50)          107.8109         0.283810   
    163. A(C  14,C  20,H  50)          110.5160         0.317208   
    164. A(C  14,C  20,H  49)          111.0730         0.317283   
    165. A(H  53,C  21,H  54)          108.1854         0.283677   
    166. A(H  52,C  21,H  54)          107.8849         0.283850   
    167. A(C  17,C  21,H  54)          110.4906         0.317228   
    168. A(H  52,C  21,H  53)          108.0269         0.283739   
    169. A(C  17,C  21,H  53)          111.0512         0.317098   
    170. A(C  17,C  21,H  52)          111.0805         0.317301   
    171. A(H  56,C  22,H  57)          107.4626         0.283878   
    172. A(H  55,C  22,H  57)          108.6104         0.286329   
    173. A(C  17,C  22,H  57)          111.1216         0.316035   
    174. A(H  55,C  22,H  56)          105.0098         0.286136   
    175. A(C  17,C  22,H  56)          109.9020         0.315813   
    176. A(C  17,C  22,H  55)          114.3556         0.318666   
    177. D(C   9,C   1,N   0,O  11)     66.7113         0.012836   
    178. D(C  10,C   1,N   0,C   2)     79.2189         0.012836   
    179. D(C   9,C   1,N   0,C   2)   -162.6269         0.012836   
    180. D(C   3,C   1,N   0,O  11)   -176.1215         0.012836   
    181. D(C   3,C   1,N   0,C   2)    -45.4597         0.012836   
    182. D(C  10,C   1,N   0,O  11)    -51.4430         0.012836   
    183. D(C   8,C   2,N   0,O  11)     51.4773         0.012753   
    184. D(C   4,C   2,N   0,O  11)    176.0245         0.012753   
    185. D(C   8,C   2,N   0,C   1)    -79.1726         0.012753   
    186. D(C   7,C   2,N   0,O  11)    -66.6292         0.012753   
    187. D(C   7,C   2,N   0,C   1)    162.7209         0.012753   
    188. D(C   4,C   2,N   0,C   1)     45.3747         0.012753   
    189. D(C   5,C   3,C   1,C  10)    -74.1500         0.009749   
    190. D(H  24,C   3,C   1,N   0)    -66.9652         0.009749   
    191. D(C   5,C   3,C   1,N   0)     52.0732         0.009749   
    192. D(H  24,C   3,C   1,C  10)    166.8116         0.009749   
    193. D(C   5,C   3,C   1,C   9)    169.4246         0.009749   
    194. D(H  23,C   3,C   1,N   0)    175.9406         0.009749   
    195. D(H  23,C   3,C   1,C   9)    -66.7080         0.009749   
    196. D(H  23,C   3,C   1,C  10)     49.7174         0.009749   
    197. D(H  24,C   3,C   1,C   9)     50.3862         0.009749   
    198. D(H  25,C   4,C   2,C   8)   -166.4397         0.009578   
    199. D(C   5,C   4,C   2,C   8)     74.6836         0.009578   
    200. D(H  25,C   4,C   2,C   7)    -50.0640         0.009578   
    201. D(H  26,C   4,C   2,C   7)     66.7747         0.009578   
    202. D(C   5,C   4,C   2,N   0)    -51.5082         0.009578   
    203. D(H  26,C   4,C   2,C   8)    -49.6010         0.009578   
    204. D(H  25,C   4,C   2,N   0)     67.3685         0.009578   
    205. D(H  26,C   4,C   2,N   0)   -175.7928         0.009578   
    206. D(C   5,C   4,C   2,C   7)   -168.9407         0.009578   
    207. D(C   4,C   5,C   3,C   1)    -59.9131         0.010333   
    208. D(H  27,C   5,C   4,H  26)     62.9665         0.010027   
    209. D(H  27,C   5,C   4,C   2)    -59.1861         0.010027   
    210. D(N   6,C   5,C   4,H  25)     57.9515         0.010027   
    211. D(N   6,C   5,C   4,C   2)    178.1668         0.010027   
    212. D(C   3,C   5,C   4,H  26)   -178.4076         0.010027   
    213. D(N   6,C   5,C   4,H  26)    -59.6805         0.010027   
    214. D(C   3,C   5,C   4,C   2)     59.4397         0.010027   
    215. D(H  27,C   5,C   3,C   1)     60.2980         0.010333   
    216. D(H  27,C   5,C   3,H  23)    -62.9332         0.010333   
    217. D(N   6,C   5,C   3,H  24)    -60.6394         0.010333   
    218. D(H  27,C   5,C   3,H  24)   -179.4563         0.010333   
    219. D(N   6,C   5,C   3,H  23)     55.8838         0.010333   
    220. D(N   6,C   5,C   3,C   1)    179.1150         0.010333   
    221. D(C   4,C   5,C   3,H  24)     60.3326         0.010333   
    222. D(H  27,C   5,C   4,H  25)   -179.4015         0.010027   
    223. D(C   3,C   5,C   4,H  25)    -60.7756         0.010027   
    224. D(C   4,C   5,C   3,H  23)    176.8557         0.010333   
    225. D(H  28,N   6,C   5,H  27)     62.0182         0.013833   
    226. D(H  28,N   6,C   5,C   4)   -174.2976         0.013833   
    227. D(H  28,N   6,C   5,C   3)    -56.4027         0.013833   
    228. D(C  13,N   6,C   5,C   3)   -179.2228         0.013833   
    229. D(C  13,N   6,C   5,C   4)     62.8823         0.013833   
    230. D(C  13,N   6,C   5,H  27)    -60.8019         0.013833   
    231. D(H  31,C   7,C   2,C   4)   -179.0966         0.010049   
    232. D(H  30,C   7,C   2,C   8)   -179.9811         0.010049   
    233. D(H  30,C   7,C   2,C   4)     61.2826         0.010049   
    234. D(H  30,C   7,C   2,N   0)    -57.7491         0.010049   
    235. D(H  31,C   7,C   2,N   0)     61.8717         0.010049   
    236. D(H  29,C   7,C   2,C   8)     59.9042         0.010049   
    237. D(H  29,C   7,C   2,C   4)    -58.8321         0.010049   
    238. D(H  31,C   7,C   2,C   8)    -60.3603         0.010049   
    239. D(H  29,C   7,C   2,N   0)   -177.8637         0.010049   
    240. D(H  34,C   8,C   2,C   7)   -174.0549         0.009538   
    241. D(H  33,C   8,C   2,C   7)     62.5916         0.009538   
    242. D(H  34,C   8,C   2,N   0)     67.2790         0.009538   
    243. D(H  33,C   8,C   2,C   4)    179.4814         0.009538   
    244. D(H  33,C   8,C   2,N   0)    -56.0745         0.009538   
    245. D(H  32,C   8,C   2,C   7)    -56.2108         0.009538   
    246. D(H  32,C   8,C   2,C   4)     60.6789         0.009538   
    247. D(H  32,C   8,C   2,N   0)   -174.8769         0.009538   
    248. D(H  34,C   8,C   2,C   4)    -57.1651         0.009538   
    249. D(H  37,C   9,C   1,C  10)    -59.9593         0.010052   
    250. D(H  37,C   9,C   1,C   3)     59.0281         0.010052   
    251. D(H  37,C   9,C   1,N   0)    177.6954         0.010052   
    252. D(H  36,C   9,C   1,C  10)    179.9302         0.010052   
    253. D(H  36,C   9,C   1,C   3)    -61.0824         0.010052   
    254. D(H  36,C   9,C   1,N   0)     57.5848         0.010052   
    255. D(H  35,C   9,C   1,C  10)     60.2668         0.010052   
    256. D(H  35,C   9,C   1,C   3)    179.2542         0.010052   
    257. D(H  35,C   9,C   1,N   0)    -62.0786         0.010052   
    258. D(H  40,C  10,C   1,C   9)    174.5304         0.009537   
    259. D(H  40,C  10,C   1,C   3)     57.5899         0.009537   
    260. D(H  40,C  10,C   1,N   0)    -66.6633         0.009537   
    261. D(H  39,C  10,C   1,C   9)    -62.2880         0.009537   
    262. D(H  39,C  10,C   1,C   3)   -179.2285         0.009537   
    263. D(H  38,C  10,C   1,C   9)     56.4967         0.009537   
    264. D(H  38,C  10,C   1,C   3)    -60.4438         0.009537   
    265. D(H  38,C  10,C   1,N   0)    175.3031         0.009537   
    266. D(H  39,C  10,C   1,N   0)     56.5184         0.009537   
    267. D(H  43,C  13,C  12,H  42)    -62.7311         0.010402   
    268. D(H  43,C  13,C  12,H  41)   -179.2174         0.010402   
    269. D(C  15,C  13,C  12,H  42)    177.1556         0.010402   
    270. D(C  15,C  13,C  12,H  41)     60.6693         0.010402   
    271. D(C  15,C  13,C  12,C  14)    -59.0573         0.010402   
    272. D(N   6,C  13,C  12,H  42)     55.7406         0.010402   
    273. D(N   6,C  13,C  12,H  41)    -60.7458         0.010402   
    274. D(N   6,C  13,C  12,C  14)    179.5277         0.010402   
    275. D(H  43,C  13,N   6,H  28)    177.0294         0.013751   
    276. D(H  43,C  13,N   6,C   5)    -60.1937         0.013751   
    277. D(C  15,C  13,N   6,H  28)    -59.3178         0.013751   
    278. D(H  43,C  13,C  12,C  14)     61.0560         0.010402   
    279. D(C  15,C  13,N   6,C   5)     63.4591         0.013751   
    280. D(C  12,C  13,N   6,H  28)     59.1940         0.013751   
    281. D(C  12,C  13,N   6,C   5)   -178.0290         0.013751   
    282. D(C  20,C  14,C  12,H  42)    -67.2308         0.009689   
    283. D(C  20,C  14,C  12,H  41)     49.9334         0.009689   
    284. D(C  20,C  14,C  12,C  13)    168.7590         0.009689   
    285. D(C  19,C  14,C  12,H  42)     49.1960         0.009689   
    286. D(C  19,C  14,C  12,H  41)    166.3602         0.009689   
    287. D(C  19,C  14,C  12,C  13)    -74.8142         0.009689   
    288. D(N  16,C  14,C  12,H  42)    175.4803         0.009689   
    289. D(N  16,C  14,C  12,H  41)    -67.3555         0.009689   
    290. D(N  16,C  14,C  12,C  13)     51.4701         0.009689   
    291. D(H  45,C  15,C  13,C  12)    -61.0448         0.009974   
    292. D(H  45,C  15,C  13,N   6)     58.0501         0.009974   
    293. D(H  44,C  15,C  13,H  43)     63.0649         0.009974   
    294. D(H  44,C  15,C  13,C  12)   -178.6439         0.009974   
    295. D(H  44,C  15,C  13,N   6)    -59.5490         0.009974   
    296. D(C  17,C  15,C  13,H  43)    -59.3116         0.009974   
    297. D(C  17,C  15,C  13,C  12)     58.9795         0.009974   
    298. D(H  45,C  15,C  13,H  43)   -179.3359         0.009974   
    299. D(C  17,C  15,C  13,N   6)    178.0744         0.009974   
    300. D(O  18,N  16,C  14,C  12)   -176.3027         0.012766   
    301. D(C  17,N  16,C  14,C  20)   -162.7734         0.012766   
    302. D(C  17,N  16,C  14,C  19)     79.1253         0.012766   
    303. D(C  17,N  16,C  14,C  12)    -45.6575         0.012766   
    304. D(O  18,N  16,C  14,C  20)     66.5815         0.012766   
    305. D(O  18,N  16,C  14,C  19)    -51.5198         0.012766   
    306. D(C  22,C  17,N  16,O  18)     51.9380         0.012750   
    307. D(C  21,C  17,N  16,O  18)    -66.2332         0.012750   
    308. D(C  21,C  17,N  16,C  14)    163.1188         0.012750   
    309. D(C  15,C  17,N  16,O  18)    176.5388         0.012750   
    310. D(C  15,C  17,N  16,C  14)     45.8908         0.012750   
    311. D(C  22,C  17,C  15,H  45)   -166.5030         0.009676   
    312. D(C  22,C  17,C  15,H  44)    -49.6194         0.009676   
    313. D(C  22,C  17,C  15,C  13)     74.6549         0.009676   
    314. D(C  21,C  17,C  15,H  45)    -50.1468         0.009676   
    315. D(C  21,C  17,C  15,H  44)     66.7367         0.009676   
    316. D(C  21,C  17,C  15,C  13)   -168.9890         0.009676   
    317. D(N  16,C  17,C  15,H  45)     67.2860         0.009676   
    318. D(C  22,C  17,N  16,C  14)    -78.7100         0.012750   
    319. D(N  16,C  17,C  15,H  44)   -175.8304         0.009676   
    320. D(N  16,C  17,C  15,C  13)    -51.5561         0.009676   
    321. D(H  48,C  19,C  14,C  20)     56.2816         0.009572   
    322. D(H  48,C  19,C  14,N  16)    175.0083         0.009572   
    323. D(H  48,C  19,C  14,C  12)    -60.6416         0.009572   
    324. D(H  47,C  19,C  14,C  20)    -62.4608         0.009572   
    325. D(H  47,C  19,C  14,N  16)     56.2659         0.009572   
    326. D(H  47,C  19,C  14,C  12)   -179.3840         0.009572   
    327. D(H  46,C  19,C  14,C  20)    174.2901         0.009572   
    328. D(H  46,C  19,C  14,N  16)    -66.9833         0.009572   
    329. D(H  46,C  19,C  14,C  12)     57.3668         0.009572   
    330. D(H  51,C  20,C  14,C  19)    -59.9791         0.010028   
    331. D(H  51,C  20,C  14,N  16)    177.7246         0.010028   
    332. D(H  51,C  20,C  14,C  12)     59.0542         0.010028   
    333. D(H  50,C  20,C  14,C  19)    179.9306         0.010028   
    334. D(H  50,C  20,C  14,N  16)     57.6343         0.010028   
    335. D(H  50,C  20,C  14,C  12)    -61.0360         0.010028   
    336. D(H  49,C  20,C  14,C  19)     60.3145         0.010028   
    337. D(H  49,C  20,C  14,N  16)    -61.9818         0.010028   
    338. D(H  49,C  20,C  14,C  12)    179.3478         0.010028   
    339. D(H  54,C  21,C  17,N  16)    -57.7632         0.010027   
    340. D(H  54,C  21,C  17,C  15)     61.1430         0.010027   
    341. D(H  53,C  21,C  17,C  22)     59.8733         0.010027   
    342. D(H  53,C  21,C  17,N  16)   -177.8181         0.010027   
    343. D(H  53,C  21,C  17,C  15)    -58.9120         0.010027   
    344. D(H  52,C  21,C  17,C  22)    -60.3747         0.010027   
    345. D(H  52,C  21,C  17,N  16)     61.9339         0.010027   
    346. D(H  54,C  21,C  17,C  22)    179.9283         0.010027   
    347. D(H  52,C  21,C  17,C  15)   -179.1599         0.010027   
    348. D(H  57,C  22,C  17,C  21)     62.7707         0.009553   
    349. D(H  57,C  22,C  17,N  16)    -56.0204         0.009553   
    350. D(H  57,C  22,C  17,C  15)    179.5873         0.009553   
    351. D(H  56,C  22,C  17,C  21)    -56.0442         0.009553   
    352. D(H  56,C  22,C  17,N  16)   -174.8353         0.009553   
    353. D(H  56,C  22,C  17,C  15)     60.7723         0.009553   
    354. D(H  55,C  22,C  17,C  21)   -173.8341         0.009553   
    355. D(H  55,C  22,C  17,N  16)     67.3748         0.009553   
    356. D(H  55,C  22,C  17,C  15)    -57.0175         0.009553   
    -----------------------------------------------------------------

Number of atoms                         .... 58
Number of degrees of freedom            .... 356

         *************************************************************
         *                GEOMETRY OPTIMIZATION CYCLE   1            *
         *************************************************************
---------------------------------
CARTESIAN COORDINATES (ANGSTROEM)
---------------------------------
  N      2.825960   -6.617970   -4.970030
  C      2.852400   -6.696930   -3.482270
  C      1.830970   -5.740470   -5.650510
  C      2.760510   -5.274290   -2.874960
  C      1.773170   -4.352900   -4.957250
  C      1.571830   -4.465240   -3.429140
  N      1.561780   -3.138810   -2.773510
  C      2.309810   -5.520040   -7.102890
  C      0.412260   -6.366180   -5.734110
  C      4.211920   -7.298630   -3.061790
  C      1.751390   -7.619450   -2.892310
  O      2.819900   -7.863570   -5.516020
  C      0.670420   -0.884280   -2.413090
  C      0.473480   -2.214240   -3.164140
  C     -0.413810    0.169110   -2.757780
  C     -0.920960   -2.761550   -2.781160
  N     -1.771840   -0.423660   -2.593390
  C     -2.064070   -1.778360   -3.143450
  O     -2.730990    0.463710   -2.970420
  C     -0.169190    0.771810   -4.167210
  C     -0.276760    1.329190   -1.746020
  C     -3.355890   -2.295990   -2.471470
  C     -2.321330   -1.780450   -4.674570
  H      2.706630   -5.344630   -1.765660
  H      3.687570   -4.708370   -3.123150
  H      2.734920   -3.816260   -5.122470
  H      0.971870   -3.757010   -5.439880
  H      0.635430   -5.000060   -3.187920
  H      1.521120   -3.281840   -1.736190
  H      1.623660   -4.838370   -7.651500
  H      3.326740   -5.071470   -7.113040
  H      2.356000   -6.481410   -7.658050
  H     -0.256770   -5.708050   -6.330050
  H      0.439720   -7.355900   -6.236970
  H     -0.089190   -6.480430   -4.765380
  H      4.331610   -8.329720   -3.458330
  H      5.049060   -6.682670   -3.455470
  H      4.303740   -7.342870   -1.954440
  H      1.878020   -7.701960   -1.790910
  H      1.820610   -8.644560   -3.313460
  H      0.727230   -7.255080   -3.036430
  H      0.616600   -1.110270   -1.323500
  H      1.683540   -0.469880   -2.613320
  H      0.537850   -2.012690   -4.247820
  H     -1.129490   -3.737110   -3.266630
  H     -0.917270   -2.929130   -1.680160
  H     -0.139740    0.034310   -4.978000
  H     -0.937290    1.535070   -4.413990
  H      0.821760    1.274680   -4.196070
  H     -1.023530    2.126540   -1.948880
  H     -0.442680    0.963730   -0.709500
  H      0.736330    1.784990   -1.795490
  H     -4.219930   -1.638530   -2.707060
  H     -3.601500   -3.324110   -2.816930
  H     -3.236850   -2.320450   -1.366750
  H     -1.441790   -1.533540   -5.281290
  H     -2.623500   -2.797610   -5.006150
  H     -3.143870   -1.084340   -4.943100

----------------------------
CARTESIAN COORDINATES (A.U.)
----------------------------
  NO LB      ZA    FRAG    MASS        X           Y           Z
   0 N     7.0000    0    14.007          5.340290465416100        -12.506150862506825         -9.391995577372640
   1 C     6.0000    0    12.011          5.390254824396978        -12.655363638041248         -6.580536624369957
   2 C     6.0000    0    12.011          3.460031859425794        -10.847916179990928        -10.677916416983372
   3 C     6.0000    0    12.011          5.216607889950954         -9.966963650879517         -5.432887045978242
   4 C     6.0000    0    12.011          3.350805688885146         -8.225788888345816         -9.367844877381126
   5 C     6.0000    0    12.011          2.970328229081441         -8.438080722230529         -6.480135474874721
   6 N     7.0000    0    14.007          2.951336481435532         -5.931491286413364         -5.241174329691931
   7 C     6.0000    0    12.011          4.364908321392647        -10.431363848290665        -13.422516859367921
   8 C     6.0000    0    12.011          0.779058495970375        -12.030336719246794        -10.835897521779188
   9 C     6.0000    0    12.011          7.959375297985599        -13.792411852821665         -5.785944579578748
  10 C     6.0000    0    12.011          3.309647453688341        -14.398673791106280         -5.465673794401775
  11 O     8.0000    0    15.999          5.328838725044537        -14.859993734919136        -10.423767149232303
  12 C     6.0000    0    12.011          1.266910194703486         -1.671047025703884         -4.560079236504033
  13 C     6.0000    0    12.011          0.894747529889034         -4.184307194773793         -5.979358049385589
  14 C     6.0000    0    12.011         -0.781987571477953          0.319571586507423         -5.211448937605349
  15 C     6.0000    0    12.011         -1.740362180296116         -5.218573205130233         -5.255630734616428
  16 N     7.0000    0    14.007         -3.348292353127031         -0.800601373897077         -4.900796858450034
  17 C     6.0000    0    12.011         -3.900527021242838         -3.360613367520197         -5.940259615674758
  18 O     8.0000    0    15.999         -5.160823174477598          0.876284905560624         -5.613280302722364
  19 C     6.0000    0    12.011         -0.319722764598137          1.458509527421761         -7.874885642537979
  20 C     6.0000    0    12.011         -0.523000604824046          2.511805079946789         -3.299499624349183
  21 C     6.0000    0    12.011         -6.341713035564990         -4.338792306221855         -4.670401448202356
  22 C     6.0000    0    12.011         -4.386677966455419         -3.364562895140093         -8.833657093844266
  23 H     1.0000    0     1.008          5.114789445855277        -10.099886987139540         -3.336613845619397
  24 H     1.0000    0     1.008          6.968497399663990         -8.897529837170804         -5.901898175156157
  25 H     1.0000    0     1.008          5.168249798183910         -7.211686255838316         -9.680065429227593
  26 H     1.0000    0     1.008          1.836568137774047         -7.099719982403482        -10.279883401395537
  27 H     1.0000    0     1.008          1.200788677277581         -9.448744053174295         -6.024295736850236
  28 H     1.0000    0     1.008          2.874500216830294         -6.201778815348121         -3.280923616452738
  29 H     1.0000    0     1.008          3.068272734602580         -9.143194234580568        -14.459239513698458
  30 H     1.0000    0     1.008          6.286627518761184         -9.583689396397610        -13.441697579627219
  31 H     1.0000    0     1.008          4.452194771518469        -12.248089861658540        -14.471617219875641
  32 H     1.0000    0     1.008         -0.485224979406960        -10.786651258729201        -11.962060914028219
  33 H     1.0000    0     1.008          0.830950375607853        -13.900636468511335        -11.786165205482829
  34 H     1.0000    0     1.008         -0.168544673884436        -12.246237930047297         -9.005263124065655
  35 H     1.0000    0     1.008          8.185556618954633        -15.740889572246529         -6.535296580723882
  36 H     1.0000    0     1.008          9.541340633736434        -12.628416143371531         -6.529891963980868
  37 H     1.0000    0     1.008          8.132889951602248        -13.876013336986340         -3.693356345181051
  38 H     1.0000    0     1.008          3.548943474026789        -14.554595094416122         -3.384329430500909
  39 H     1.0000    0     1.008          3.440454296678370        -16.335850948250297         -6.261531955702710
  40 H     1.0000    0     1.008          1.374265536371552        -13.710114279689396         -5.738021124822507
  41 H     1.0000    0     1.008          1.165205134175844         -2.098106234708748         -2.501052538244776
  42 H     1.0000    0     1.008          3.181429535501784         -0.887944515806918         -4.938459100299085
  43 H     1.0000    0     1.008          1.016389201129545         -3.803432892481964         -8.027216466193371
  44 H     1.0000    0     1.008         -2.134426771002715         -7.062114432338449         -6.173036080851179
  45 H     1.0000    0     1.008         -1.733389090861946         -5.535253510652756         -3.175042261169130
  46 H     1.0000    0     1.008         -0.264070329954156          0.064836503654838         -9.407056694659991
  47 H     1.0000    0     1.008         -1.771221408063050          2.900861896398496         -8.341232257867066
  48 H     1.0000    0     1.008          1.552901347811128          2.408796108386741         -7.929423138762946
  49 H     1.0000    0     1.008         -1.934191389852419          4.018578212828898         -3.682849467876449
  50 H     1.0000    0     1.008         -0.836543964964260          1.821185767043928         -1.340760692017128
  51 H     1.0000    0     1.008          1.391462044190235          3.373142251788095         -3.392984376194268
  52 H     1.0000    0     1.008         -7.974512004318307         -3.096372962213989         -5.115602028092863
  53 H     1.0000    0     1.008         -6.805848671317388         -6.281657539028972         -5.323226238426792
  54 H     1.0000    0     1.008         -6.116760036583003         -4.385015007457569         -2.582783193536871
  55 H     1.0000    0     1.008         -2.724588242626321         -2.897970615413596         -9.980191733816968
  56 H     1.0000    0     1.008         -4.957696512342403         -5.286716729519433         -9.460252485329875
  57 H     1.0000    0     1.008         -5.941053300651006         -2.049105636056170         -9.341105252586139

--------------------------------
INTERNAL COORDINATES (ANGSTROEM)
--------------------------------
 N      0   0   0   0.000000     0.000     0.000
 C      1   0   0   1.490088     0.000     0.000
 C      1   2   0   1.490994   119.915     0.000
 C      2   1   3   1.549572   109.975   314.540
 C      3   1   2   1.552192   110.312    45.375
 C      4   2   1   1.540986   112.756    52.073
 N      6   4   2   1.479651   108.454   179.115
 C      3   1   2   1.545084   107.828   162.721
 C      3   1   2   1.552817   113.398   280.827
 C      2   1   3   1.545038   107.937   197.373
 C      2   1   3   1.552842   113.467    79.219
 O      1   2   3   1.360022   110.633   229.338
 C      7   6   4   2.450986   153.154   178.176
 C      7   6   4   1.480479   116.610   180.777
 C     13   7   6   1.550483   147.839     3.087
 C     14   7   6   1.546184   112.120    63.459
 N     15  13   7   1.490854   110.020    51.979
 C     17  15  13   1.491032   119.941   314.342
 O     17  15  13   1.359980   110.636   183.697
 C     15  13   7   1.552282   110.820   285.694
 C     15  13   7   1.545389   107.604   169.267
 C     18  17  15   1.545412   107.923   163.119
 C     18  17  15   1.552584   113.423   281.290
 H      4   2   1   1.112833   109.604   175.941
 H      4   2   1   1.114138   109.250   293.035
 H      5   3   1   1.113662   109.411    67.368
 H      5   3   1   1.109098   108.231   184.207
 H      6   4   2   1.105018   108.727    60.298
 H      7   6   4   1.047923   108.453   303.597
 H      8   3   1   1.111957   111.100   182.136
 H      8   3   1   1.111515   110.469   302.251
 H      8   3   1   1.111111   111.046    61.872
 H      9   3   1   1.111702   109.886   185.123
 H      9   3   1   1.110481   111.157   303.925
 H      9   3   1   1.096788   114.339    67.279
 H     10   2   1   1.111178   111.041   297.921
 H     10   2   1   1.111393   110.521    57.585
 H     10   2   1   1.112031   111.048   177.695
 H     11   2   1   1.111722   109.860   175.303
 H     11   2   1   1.110409   111.110    56.518
 H     11   2   1   1.096558   114.512   293.337
 H     13   7   6   1.114080    88.556   127.420
 H     13   7   6   1.112759    89.140   234.639
 H     14   7   6   1.104141   109.275   299.806
 H     16  14   7   1.109452   111.863   300.451
 H     16  14   7   1.113687   107.166    58.050
 H     20  15  13   1.096428   114.488    57.367
 H     20  15  13   1.110605   111.076   180.616
 H     20  15  13   1.111617   109.858   299.358
 H     21  15  13   1.111119   111.073   179.348
 H     21  15  13   1.111514   110.516   298.964
 H     21  15  13   1.112004   111.061    59.054
 H     22  18  17   1.111000   111.080    61.934
 H     22  18  17   1.112069   111.051   182.182
 H     22  18  17   1.111384   110.491   302.237
 H     23  18  17   1.096661   114.356    67.375
 H     23  18  17   1.111695   109.902   185.165
 H     23  18  17   1.110518   111.122   303.980

---------------------------
INTERNAL COORDINATES (A.U.)
---------------------------
 N      0   0   0   0.000000     0.000     0.000
 C      1   0   0   2.815859     0.000     0.000
 C      1   2   0   2.817571   119.915     0.000
 C      2   1   3   2.928267   109.975   314.540
 C      3   1   2   2.933218   110.312    45.375
 C      4   2   1   2.912041   112.756    52.073
 N      6   4   2   2.796136   108.454   179.115
 C      3   1   2   2.919786   107.828   162.721
 C      3   1   2   2.934398   113.398   280.827
 C      2   1   3   2.919698   107.937   197.373
 C      2   1   3   2.934447   113.467    79.219
 O      1   2   3   2.570070   110.633   229.338
 C      7   6   4   4.631692   153.154   178.176
 C      7   6   4   2.797700   116.610   180.777
 C     13   7   6   2.929988   147.839     3.087
 C     14   7   6   2.921864   112.120    63.459
 N     15  13   7   2.817306   110.020    51.979
 C     17  15  13   2.817642   119.941   314.342
 O     17  15  13   2.569990   110.636   183.697
 C     15  13   7   2.933388   110.820   285.694
 C     15  13   7   2.920362   107.604   169.267
 C     18  17  15   2.920405   107.923   163.119
 C     18  17  15   2.933958   113.423   281.290
 H      4   2   1   2.102950   109.604   175.941
 H      4   2   1   2.105416   109.250   293.035
 H      5   3   1   2.104516   109.411    67.368
 H      5   3   1   2.095891   108.231   184.207
 H      6   4   2   2.088181   108.727    60.298
 H      7   6   4   1.980288   108.453   303.597
 H      8   3   1   2.101295   111.100   182.136
 H      8   3   1   2.100458   110.469   302.251
 H      8   3   1   2.099696   111.046    61.872
 H      9   3   1   2.100812   109.886   185.123
 H      9   3   1   2.098505   111.157   303.925
 H      9   3   1   2.072628   114.339    67.279
 H     10   2   1   2.099822   111.041   297.921
 H     10   2   1   2.100228   110.521    57.585
 H     10   2   1   2.101433   111.048   177.695
 H     11   2   1   2.100849   109.860   175.303
 H     11   2   1   2.098370   111.110    56.518
 H     11   2   1   2.072195   114.512   293.337
 H     13   7   6   2.105306    88.556   127.420
 H     13   7   6   2.102809    89.140   234.639
 H     14   7   6   2.086525   109.275   299.806
 H     16  14   7   2.096560   111.863   300.451
 H     16  14   7   2.104563   107.166    58.050
 H     20  15  13   2.071948   114.488    57.367
 H     20  15  13   2.098740   111.076   180.616
 H     20  15  13   2.100652   109.858   299.358
 H     21  15  13   2.099710   111.073   179.348
 H     21  15  13   2.100458   110.516   298.964
 H     21  15  13   2.101382   111.061    59.054
 H     22  18  17   2.099486   111.080    61.934
 H     22  18  17   2.101506   111.051   182.182
 H     22  18  17   2.100212   110.491   302.237
 H     23  18  17   2.072388   114.356    67.375
 H     23  18  17   2.100800   109.902   185.165
 H     23  18  17   2.098574   111.122   303.980

---------------------
BASIS SET INFORMATION
---------------------
There are 4 groups of distinct atoms

 Group   1 Type N   : 7s4p1d contracted to 3s2p1d pattern {511/31/1}
 Group   2 Type C   : 7s4p1d contracted to 3s2p1d pattern {511/31/1}
 Group   3 Type O   : 7s4p1d contracted to 3s2p1d pattern {511/31/1}
 Group   4 Type H   : 4s contracted to 2s pattern {31}

Atom   0N    basis set group =>   1
Atom   1C    basis set group =>   2
Atom   2C    basis set group =>   2
Atom   3C    basis set group =>   2
Atom   4C    basis set group =>   2
Atom   5C    basis set group =>   2
Atom   6N    basis set group =>   1
Atom   7C    basis set group =>   2
Atom   8C    basis set group =>   2
Atom   9C    basis set group =>   2
Atom  10C    basis set group =>   2
Atom  11O    basis set group =>   3
Atom  12C    basis set group =>   2
Atom  13C    basis set group =>   2
Atom  14C    basis set group =>   2
Atom  15C    basis set group =>   2
Atom  16N    basis set group =>   1
Atom  17C    basis set group =>   2
Atom  18O    basis set group =>   3
Atom  19C    basis set group =>   2
Atom  20C    basis set group =>   2
Atom  21C    basis set group =>   2
Atom  22C    basis set group =>   2
Atom  23H    basis set group =>   4
Atom  24H    basis set group =>   4
Atom  25H    basis set group =>   4
Atom  26H    basis set group =>   4
Atom  27H    basis set group =>   4
Atom  28H    basis set group =>   4
Atom  29H    basis set group =>   4
Atom  30H    basis set group =>   4
Atom  31H    basis set group =>   4
Atom  32H    basis set group =>   4
Atom  33H    basis set group =>   4
Atom  34H    basis set group =>   4
Atom  35H    basis set group =>   4
Atom  36H    basis set group =>   4
Atom  37H    basis set group =>   4
Atom  38H    basis set group =>   4
Atom  39H    basis set group =>   4
Atom  40H    basis set group =>   4
Atom  41H    basis set group =>   4
Atom  42H    basis set group =>   4
Atom  43H    basis set group =>   4
Atom  44H    basis set group =>   4
Atom  45H    basis set group =>   4
Atom  46H    basis set group =>   4
Atom  47H    basis set group =>   4
Atom  48H    basis set group =>   4
Atom  49H    basis set group =>   4
Atom  50H    basis set group =>   4
Atom  51H    basis set group =>   4
Atom  52H    basis set group =>   4
Atom  53H    basis set group =>   4
Atom  54H    basis set group =>   4
Atom  55H    basis set group =>   4
Atom  56H    basis set group =>   4
Atom  57H    basis set group =>   4
-------------------------------
AUXILIARY BASIS SET INFORMATION
-------------------------------
There are 4 groups of distinct atoms

 Group   1 Type N   : 8s3p3d1f contracted to 6s3p3d1f pattern {311111/111/111/1}
 Group   2 Type C   : 8s3p3d1f contracted to 6s3p3d1f pattern {311111/111/111/1}
 Group   3 Type O   : 8s3p3d1f contracted to 6s3p3d1f pattern {311111/111/111/1}
 Group   4 Type H   : 4s2p contracted to 2s1p pattern {31/2}

Atom   0N    basis set group =>   1
Atom   1C    basis set group =>   2
Atom   2C    basis set group =>   2
Atom   3C    basis set group =>   2
Atom   4C    basis set group =>   2
Atom   5C    basis set group =>   2
Atom   6N    basis set group =>   1
Atom   7C    basis set group =>   2
Atom   8C    basis set group =>   2
Atom   9C    basis set group =>   2
Atom  10C    basis set group =>   2
Atom  11O    basis set group =>   3
Atom  12C    basis set group =>   2
Atom  13C    basis set group =>   2
Atom  14C    basis set group =>   2
Atom  15C    basis set group =>   2
Atom  16N    basis set group =>   1
Atom  17C    basis set group =>   2
Atom  18O    basis set group =>   3
Atom  19C    basis set group =>   2
Atom  20C    basis set group =>   2
Atom  21C    basis set group =>   2
Atom  22C    basis set group =>   2
Atom  23H    basis set group =>   4
Atom  24H    basis set group =>   4
Atom  25H    basis set group =>   4
Atom  26H    basis set group =>   4
Atom  27H    basis set group =>   4
Atom  28H    basis set group =>   4
Atom  29H    basis set group =>   4
Atom  30H    basis set group =>   4
Atom  31H    basis set group =>   4
Atom  32H    basis set group =>   4
Atom  33H    basis set group =>   4
Atom  34H    basis set group =>   4
Atom  35H    basis set group =>   4
Atom  36H    basis set group =>   4
Atom  37H    basis set group =>   4
Atom  38H    basis set group =>   4
Atom  39H    basis set group =>   4
Atom  40H    basis set group =>   4
Atom  41H    basis set group =>   4
Atom  42H    basis set group =>   4
Atom  43H    basis set group =>   4
Atom  44H    basis set group =>   4
Atom  45H    basis set group =>   4
Atom  46H    basis set group =>   4
Atom  47H    basis set group =>   4
Atom  48H    basis set group =>   4
Atom  49H    basis set group =>   4
Atom  50H    basis set group =>   4
Atom  51H    basis set group =>   4
Atom  52H    basis set group =>   4
Atom  53H    basis set group =>   4
Atom  54H    basis set group =>   4
Atom  55H    basis set group =>   4
Atom  56H    basis set group =>   4
Atom  57H    basis set group =>   4
------------------------------------------------------------------------------
                           ORCA GTO INTEGRAL CALCULATION
                           -- RI-GTO INTEGRALS CHOSEN --
------------------------------------------------------------------------------

                         BASIS SET STATISTICS AND STARTUP INFO

Gaussian basis set:
 # of primitive gaussian shells          ...  416
 # of primitive gaussian functions       ...  692
 # of contracted shells                  ...  208
 # of contracted basis functions         ...  392
 Highest angular momentum                ...    2
 Maximum contraction depth               ...    5
Auxiliary gaussian basis set:
 # of primitive gaussian shells          ...  555
 # of primitive gaussian functions       ... 1247
 # of contracted shells                  ...  404
 # of contracted aux-basis functions     ... 1026
 Highest angular momentum                ...    3
 Maximum contraction depth               ...    3
Ratio of auxiliary to basis functions    ...  2.62
Integral package used                  ... LIBINT
 One Electron integrals                  ... done
 Ordering auxiliary basis shells         ... done
 Integral threshhold             Thresh  ...  2.500e-11
 Primitive cut-off               TCut    ...  2.500e-12
 Pre-screening matrix                    ... done
 Shell pair data                         ... 
 Ordering of the shell pairs             ... done (   0.003 sec) 16770 of 21736 pairs
 Determination of significant pairs      ... done (   0.000 sec)
 Creation of shell pair data             ... done (   0.004 sec)
 Storage of shell pair data              ... done (   0.004 sec)
 Shell pair data done in (   0.012 sec)
 Computing two index integrals           ... done
 Cholesky decomposition of the V-matrix  ... done


Timings:
 Total evaluation time                   ...   0.667 sec (  0.011 min)
 One electron matrix time                ...   0.291 sec (  0.005 min) = 43.7%
 Schwartz matrix evaluation time         ...   0.257 sec (  0.004 min) = 38.6%
 Two index repulsion integral time       ...   0.031 sec (  0.001 min) =  4.6%
 Cholesky decomposition of V             ...   0.054 sec (  0.001 min) =  8.1%
 Three index repulsion integral time     ...   0.000 sec (  0.000 min) =  0.0%

-------------------------------------------------------------------------------
                                 ORCA SCF
-------------------------------------------------------------------------------

------------
SCF SETTINGS
------------
Hamiltonian:
 Density Functional     Method          .... DFT(GTOs)
 Exchange Functional    Exchange        .... B88
   X-Alpha parameter    XAlpha          ....  0.666667
   Becke's b parameter  XBeta           ....  0.004200
 Correlation Functional Correlation     .... P86
 LDA part of GGA corr.  LDAOpt          .... PW91-LDA
 Gradients option       PostSCFGGA      .... off
 RI-approximation to the Coulomb term is turned on
   Number of auxiliary basis functions  .... 1026


General Settings:
 Integral files         IntName         .... N-BiradOpt
 Hartree-Fock type      HFTyp           .... UHF
 Total Charge           Charge          ....    0
 Multiplicity           Mult            ....    3
 Number of Electrons    NEL             ....  180
 Basis Dimension        Dim             ....  392
 Nuclear Repulsion      ENuc            ....   2195.2408056336 Eh

Convergence Acceleration:
 DIIS                   CNVDIIS         .... on
   Start iteration      DIISMaxIt       ....    12
   Startup error        DIISStart       ....  0.200000
   # of expansion vecs  DIISMaxEq       ....     5
   Bias factor          DIISBfac        ....   1.050
   Max. coefficient     DIISMaxC        ....  10.000
 Newton-Raphson         CNVNR           .... off
 SOSCF                  CNVSOSCF        .... off
 Level Shifting         CNVShift        .... on
   Level shift para.    LevelShift      ....    0.2500
   Turn off err/grad.   ShiftErr        ....    0.0010
 Zerner damping         CNVZerner       .... off
 Static damping         CNVDamp         .... on
   Fraction old density DampFac         ....    0.7000
   Max. Damping (<1)    DampMax         ....    0.9800
   Min. Damping (>=0)   DampMin         ....    0.0000
   Turn off err/grad.   DampErr         ....    0.1000
 Fernandez-Rico         CNVRico         .... off

SCF Procedure:
 Maximum # iterations   MaxIter         ....   125
 SCF integral mode      SCFMode         .... Direct
   Integral package                     .... LIBINT
 Reset frequeny         DirectResetFreq ....    20
 Integral Threshold     Thresh          ....  2.500e-11 Eh
 Primitive CutOff       TCut            ....  2.500e-12 Eh

Convergence Tolerance:
 Convergence Check Mode ConvCheckMode   .... Total+1el-Energy
 Energy Change          TolE            ....  1.000e-08 Eh
 1-El. energy change                    ....  1.000e-05 Eh
 DIIS Error             TolErr          ....  5.000e-07


Diagonalization of the overlap matrix:
Smallest eigenvalue                        ... 8.465e-04
Time for diagonalization                   ...    0.064 sec
Threshold for overlap eigenvalues          ... 1.000e-08
Number of eigenvalues below threshold      ... 0
Time for construction of square roots      ...    0.035 sec
Total time needed                          ...    0.100 sec

-------------------
DFT GRID GENERATION
-------------------

General Integration Accuracy     IntAcc      ...  4.670
Radial Grid Type                 RadialGrid  ... Gauss-Chebyshev
Angular Grid (max. acc.)         AngularGrid ... Lebedev-302
Angular grid pruning method      GridPruning ... 3 (G Style)
Weight generation scheme         WeightScheme... Becke
Basis function cutoff            BFCut       ...    1.0000e-11
Integration weight cutoff        WCut        ...    1.0000e-14
Grids for H and He will be reduced by one unit

# of grid points (after initial pruning)     ... 261666 (   0.4 sec)
# of grid points (after weights+screening)   ... 220731 (   7.3 sec)
nearest neighbour list constructed           ...    0.0 sec
Grid point re-assignment to atoms done       ...    0.1 sec
Grid point division into batches done        ...    0.8 sec
Reduced shell lists constructed in    6.0 sec

Total number of grid points                  ...   220731
Total number of batches                      ...     3474
Average number of points per batch           ...       63
Average number of grid points per atom       ...     3806
Average number of shells per batch           ...    97.97 (47.10%)
Average number of basis functions per batch  ...   173.50 (44.26%)
Average number of large shells per batch     ...    63.36 (64.67%)
Average number of large basis fcns per batch ...   112.34 (64.75%)
Maximum spatial batch extension              ...  22.48, 21.28, 24.78 au
Average spatial batch extension              ...   2.04,  2.01,  2.05 au

Time for grid setup =   13.643 sec

------------------------------
INITIAL GUESS: MODEL POTENTIAL
------------------------------
Loading Hartree-Fock densities                     ... done
Calculating cut-offs                               ... done
Setting up the integral package                    ... done
Initializing the effective Hamiltonian             ... done
Starting the Coulomb interaction                   ... done (   3.3 sec)
Reading the grid                                   ... done
Mapping shells                                     ... done
Starting the XC term evaluation                    ... done (   7.6 sec)
  promolecular density results
     # of electrons  =    179.983814407
     EX              =   -138.920531673
     EC              =     -6.575925625
     EX+EC           =   -145.496457299
Transforming the Hamiltonian                       ... done (   0.0 sec)
Diagonalizing the Hamiltonian                      ... done (   0.1 sec)
Back transforming the eigenvectors                 ... done (   0.0 sec)
Now organizing SCF variables                       ... done
                      ------------------
                      INITIAL GUESS DONE (  24.7 sec)
                      ------------------
--------------
SCF ITERATIONS
--------------
ITER       Energy         Delta-E        Max-DP      RMS-DP      [F,P]     Damp
               ***  Starting incremental Fock matrix formation  ***
  0  -1020.1663791449   0.000000000000 0.04315524  0.00099828  0.2025361 0.7000
  1  -1020.4466901808  -0.280311035926 0.02845430  0.00066815  0.0855456 0.7000
                               ***Turning on DIIS***
  2  -1020.5386645763  -0.091974395429 0.02989923  0.00098161  0.0279230 0.0000
  3  -1020.6800350122  -0.141370435894 0.01930444  0.00046280  0.0541386 0.0000
  4  -1020.7223149214  -0.042279909284 0.00963691  0.00016087  0.0262216 0.0000
  5  -1020.7258033646  -0.003488443192 0.00333308  0.00006803  0.0112855 0.0000
  6  -1020.7262736445  -0.000470279865 0.00120056  0.00002310  0.0021037 0.0000
  7  -1020.7263042362  -0.000030591682 0.00066178  0.00001023  0.0012317 0.0000
  8  -1020.7263122704  -0.000008034252 0.00033999  0.00000657  0.0001127 0.0000
  9  -1020.7263130698  -0.000000799374 0.00009235  0.00000169  0.0001800 0.0000
 10  -1020.7263132137  -0.000000143882 0.00004925  0.00000080  0.0000909 0.0000
 11  -1020.7263132542  -0.000000040512 0.00003824  0.00000043  0.0000418 0.0000
 12  -1020.7263132587  -0.000000004507 0.00003263  0.00000032  0.0000925 0.0000
 13  -1020.7263132681  -0.000000009344 0.00000958  0.00000011  0.0000133 0.0000
 14  -1020.7263132623   0.000000005753 0.00000314  0.00000004  0.0000071 0.0000
 15  -1020.7263132496   0.000000012744 0.00000203  0.00000002  0.0000018 0.0000
 16  -1020.7263132651  -0.000000015530 0.00000079  0.00000001  0.0000015 0.0000
                            ***DIIS convergence achieved***

               *****************************************************
               *                     SUCCESS                       *
               *           SCF CONVERGED AFTER  17 CYCLES          *
               *****************************************************


----------------
TOTAL SCF ENERGY
----------------

Total Energy       :        -1020.72631326 Eh          -27775.37506 eV

Components:
Nuclear Repulsion  :         2195.24080563 Eh           59735.53922 eV
Electronic Energy  :        -3215.96711889 Eh          -87510.91427 eV

One Electron Energy:        -5748.41188443 Eh         -156422.23973 eV
Two Electron Energy:         2532.44476554 Eh           68911.32545 eV

Virial components:
Potential Energy   :        -2029.87538406 Eh          -55235.71733 eV
Kinetic Energy     :         1009.14907080 Eh           27460.34227 eV
Virial Ratio       :            2.01147228


DFT components:
N(Alpha)           :       91.000316575663 electrons
N(Beta)            :       89.000303562524 electrons
N(Total)           :      180.000620138187 electrons
E(X)               :     -141.716424558148 Eh       
E(C)               :       -6.537082349246 Eh       
E(XC)              :     -148.253506907393 Eh       

---------------
SCF CONVERGENCE
---------------

  Last Energy change         ...    5.0190e-09  Tolerance :   1.0000e-08
  Last MAX-Density change    ...    4.8907e-07  Tolerance :   1.0000e-07
  Last RMS-Density change    ...    7.0290e-09  Tolerance :   5.0000e-09
  Last DIIS Error            ...    6.0928e-07  Tolerance :   5.0000e-07

             **** THE GBW FILE WAS UPDATED (N-BiradOpt.gbw) ****
             **** DENSITY FILE WAS UPDATED (N-BiradOpt.scfp.tmp) ****
             **** ENERGY FILE WAS UPDATED (N-BiradOpt.en.tmp) ****
----------------------
UHF SPIN CONTAMINATION
----------------------

Warning: in a DFT calculation there is little theoretical justification to 
         calculate <S**2> as in Hartree-Fock theory. We will do it anyways
         but you should keep in mind that the values have only limited relevance

Expectation value of <S**2>     :     2.003780
Ideal value S*(S+1) for S=1.0   :     2.000000
Deviation                       :     0.003780

----------------
ORBITAL ENERGIES
----------------
                 SPIN UP ORBITALS
  NO   OCC          E(Eh)            E(eV) 
   0   1.0000     -18.781330      -511.0660 
   1   1.0000     -18.780794      -511.0514 
   2   1.0000     -14.098111      -383.6291 
   3   1.0000     -14.097720      -383.6185 
   4   1.0000     -14.005195      -381.1007 
   5   1.0000      -9.967426      -271.2275 
   6   1.0000      -9.967373      -271.2260 
   7   1.0000      -9.966838      -271.2114 
   8   1.0000      -9.966546      -271.2035 
   9   1.0000      -9.949233      -270.7324 
  10   1.0000      -9.948783      -270.7202 
  11   1.0000      -9.919849      -269.9328 
  12   1.0000      -9.919408      -269.9208 
  13   1.0000      -9.918864      -269.9060 
  14   1.0000      -9.918575      -269.8981 
  15   1.0000      -9.908408      -269.6215 
  16   1.0000      -9.907068      -269.5850 
  17   1.0000      -9.906491      -269.5693 
  18   1.0000      -9.906422      -269.5675 
  19   1.0000      -9.903602      -269.4907 
  20   1.0000      -9.902946      -269.4729 
  21   1.0000      -9.902663      -269.4652 
  22   1.0000      -9.902348      -269.4566 
  23   1.0000      -0.965602       -26.2754 
  24   1.0000      -0.965140       -26.2628 
  25   1.0000      -0.833281       -22.6747 
  26   1.0000      -0.786783       -21.4095 
  27   1.0000      -0.773466       -21.0471 
  28   1.0000      -0.742761       -20.2115 
  29   1.0000      -0.742351       -20.2004 
  30   1.0000      -0.699413       -19.0320 
  31   1.0000      -0.656777       -17.8718 
  32   1.0000      -0.654364       -17.8062 
  33   1.0000      -0.649269       -17.6675 
  34   1.0000      -0.624601       -16.9963 
  35   1.0000      -0.623697       -16.9717 
  36   1.0000      -0.617946       -16.8152 
  37   1.0000      -0.616728       -16.7820 
  38   1.0000      -0.613861       -16.7040 
  39   1.0000      -0.613110       -16.6836 
  40   1.0000      -0.549738       -14.9591 
  41   1.0000      -0.542081       -14.7508 
  42   1.0000      -0.538860       -14.6631 
  43   1.0000      -0.523942       -14.2572 
  44   1.0000      -0.480259       -13.0685 
  45   1.0000      -0.469681       -12.7807 
  46   1.0000      -0.451157       -12.2766 
  47   1.0000      -0.445479       -12.1221 
  48   1.0000      -0.437471       -11.9042 
  49   1.0000      -0.436618       -11.8810 
  50   1.0000      -0.432074       -11.7573 
  51   1.0000      -0.418564       -11.3897 
  52   1.0000      -0.416722       -11.3396 
  53   1.0000      -0.412818       -11.2333 
  54   1.0000      -0.406236       -11.0542 
  55   1.0000      -0.404584       -11.0093 
  56   1.0000      -0.391129       -10.6432 
  57   1.0000      -0.385082       -10.4786 
  58   1.0000      -0.383115       -10.4251 
  59   1.0000      -0.379457       -10.3255 
  60   1.0000      -0.373702       -10.1689 
  61   1.0000      -0.368257       -10.0208 
  62   1.0000      -0.366503        -9.9731 
  63   1.0000      -0.364222        -9.9110 
  64   1.0000      -0.354041        -9.6340 
  65   1.0000      -0.348167        -9.4741 
  66   1.0000      -0.347303        -9.4506 
  67   1.0000      -0.346043        -9.4163 
  68   1.0000      -0.333054        -9.0629 
  69   1.0000      -0.332508        -9.0480 
  70   1.0000      -0.332002        -9.0342 
  71   1.0000      -0.330912        -9.0046 
  72   1.0000      -0.330073        -8.9817 
  73   1.0000      -0.328954        -8.9513 
  74   1.0000      -0.320588        -8.7236 
  75   1.0000      -0.318450        -8.6655 
  76   1.0000      -0.317664        -8.6441 
  77   1.0000      -0.311306        -8.4711 
  78   1.0000      -0.304205        -8.2778 
  79   1.0000      -0.299608        -8.1527 
  80   1.0000      -0.297790        -8.1033 
  81   1.0000      -0.295346        -8.0368 
  82   1.0000      -0.288733        -7.8568 
  83   1.0000      -0.287233        -7.8160 
  84   1.0000      -0.286830        -7.8050 
  85   1.0000      -0.277346        -7.5470 
  86   1.0000      -0.211001        -5.7416 
  87   1.0000      -0.210569        -5.7299 
  88   1.0000      -0.189621        -5.1599 
  89   1.0000      -0.182201        -4.9579 
  90   1.0000      -0.181594        -4.9414 
  91   0.0000       0.008605         0.2342 
  92   0.0000       0.020584         0.5601 
  93   0.0000       0.032458         0.8832 
  94   0.0000       0.034923         0.9503 
  95   0.0000       0.043686         1.1888 
  96   0.0000       0.049542         1.3481 
  97   0.0000       0.053176         1.4470 
  98   0.0000       0.056708         1.5431 
  99   0.0000       0.060197         1.6380 
 100   0.0000       0.076776         2.0892 
 101   0.0000       0.080705         2.1961 
 102   0.0000       0.082083         2.2336 
 103   0.0000       0.084004         2.2859 
 104   0.0000       0.089857         2.4451 
 105   0.0000       0.091032         2.4771 
 106   0.0000       0.094606         2.5743 
 107   0.0000       0.100530         2.7356 
 108   0.0000       0.105435         2.8690 
 109   0.0000       0.106827         2.9069 
 110   0.0000       0.107129         2.9151 
 111   0.0000       0.107744         2.9319 
 112   0.0000       0.108855         2.9621 
 113   0.0000       0.110648         3.0109 
 114   0.0000       0.119742         3.2583 
 115   0.0000       0.126509         3.4425 
 116   0.0000       0.129617         3.5270 
 117   0.0000       0.131829         3.5873 
 118   0.0000       0.134587         3.6623 
 119   0.0000       0.137593         3.7441 
 120   0.0000       0.138150         3.7592 
 121   0.0000       0.139880         3.8063 
 122   0.0000       0.142077         3.8661 
 123   0.0000       0.145675         3.9640 
 124   0.0000       0.147727         4.0198 
 125   0.0000       0.151475         4.1218 
 126   0.0000       0.151903         4.1335 
 127   0.0000       0.153094         4.1659 
 128   0.0000       0.155669         4.2360 
 129   0.0000       0.162904         4.4328 
 130   0.0000       0.168817         4.5937 
 131   0.0000       0.170725         4.6457 
 132   0.0000       0.176772         4.8102 
 133   0.0000       0.182566         4.9679 
 134   0.0000       0.185020         5.0346 
 135   0.0000       0.189568         5.1584 
 136   0.0000       0.194055         5.2805 
 137   0.0000       0.199579         5.4308 
 138   0.0000       0.205928         5.6036 
 139   0.0000       0.211008         5.7418 
 140   0.0000       0.215149         5.8545 
 141   0.0000       0.219901         5.9838 
 142   0.0000       0.224127         6.0988 
 143   0.0000       0.228213         6.2100 
 144   0.0000       0.228457         6.2166 
 145   0.0000       0.234261         6.3746 
 146   0.0000       0.240310         6.5392 
 147   0.0000       0.242262         6.5923 
 148   0.0000       0.265006         7.2112 
 149   0.0000       0.273493         7.4421 
 150   0.0000       0.345082         9.3902 
 151   0.0000       0.354261         9.6399 
 152   0.0000       0.355967         9.6864 
 153   0.0000       0.363448         9.8899 
 154   0.0000       0.371664        10.1135 
 155   0.0000       0.386802        10.5254 
 156   0.0000       0.387739        10.5509 
 157   0.0000       0.396604        10.7922 
 158   0.0000       0.399179        10.8622 
 159   0.0000       0.402040        10.9401 
 160   0.0000       0.410763        11.1774 
 161   0.0000       0.421675        11.4744 
 162   0.0000       0.427783        11.6406 
 163   0.0000       0.435619        11.8538 
 164   0.0000       0.441427        12.0119 
 165   0.0000       0.449481        12.2310 
 166   0.0000       0.473708        12.8903 
 167   0.0000       0.491904        13.3854 
 168   0.0000       0.499532        13.5930 
 169   0.0000       0.501313        13.6414 
 170   0.0000       0.505188        13.7469 
 171   0.0000       0.508066        13.8252 
 172   0.0000       0.513088        13.9618 
 173   0.0000       0.521889        14.2013 
 174   0.0000       0.526608        14.3297 
 175   0.0000       0.527885        14.3645 
 176   0.0000       0.544187        14.8081 
 177   0.0000       0.547952        14.9105 
 178   0.0000       0.560903        15.2630 
 179   0.0000       0.566492        15.4150 
 180   0.0000       0.573880        15.6161 
 181   0.0000       0.575311        15.6550 
 182   0.0000       0.577889        15.7252 
 183   0.0000       0.586348        15.9554 
 184   0.0000       0.588525        16.0146 
 185   0.0000       0.591907        16.1066 
 186   0.0000       0.592791        16.1307 
 187   0.0000       0.597383        16.2556 
 188   0.0000       0.602669        16.3995 
 189   0.0000       0.606373        16.5002 
 190   0.0000       0.609836        16.5945 
 191   0.0000       0.610847        16.6220 
 192   0.0000       0.617875        16.8132 
 193   0.0000       0.618927        16.8419 
 194   0.0000       0.621147        16.9023 
 195   0.0000       0.626851        17.0575 
 196   0.0000       0.628970        17.1152 
 197   0.0000       0.629701        17.1350 
 198   0.0000       0.634040        17.2531 
 199   0.0000       0.635080        17.2814 
 200   0.0000       0.638049        17.3622 
 201   0.0000       0.642512        17.4836 
 202   0.0000       0.648292        17.6409 
 203   0.0000       0.648898        17.6574 
 204   0.0000       0.651306        17.7229 
 205   0.0000       0.657410        17.8890 
 206   0.0000       0.660289        17.9674 
 207   0.0000       0.663170        18.0458 
 208   0.0000       0.665381        18.1059 
 209   0.0000       0.667341        18.1593 
 210   0.0000       0.669012        18.2047 
 211   0.0000       0.674347        18.3499 
 212   0.0000       0.678041        18.4504 
 213   0.0000       0.681787        18.5524 
 214   0.0000       0.685654        18.6576 
 215   0.0000       0.686090        18.6695 
 216   0.0000       0.688836        18.7442 
 217   0.0000       0.693772        18.8785 
 218   0.0000       0.695209        18.9176 
 219   0.0000       0.697638        18.9837 
 220   0.0000       0.701098        19.0779 
 221   0.0000       0.707123        19.2418 
 222   0.0000       0.711623        19.3642 
 223   0.0000       0.715815        19.4783 
 224   0.0000       0.719920        19.5900 
 225   0.0000       0.722659        19.6645 
 226   0.0000       0.731029        19.8923 
 227   0.0000       0.743948        20.2439 
 228   0.0000       0.749970        20.4077 
 229   0.0000       0.762239        20.7416 
 230   0.0000       0.781070        21.2540 
 231   0.0000       0.783915        21.3314 
 232   0.0000       0.796138        21.6640 
 233   0.0000       0.801621        21.8132 
 234   0.0000       0.809429        22.0257 
 235   0.0000       0.824320        22.4309 
 236   0.0000       0.828279        22.5386 
 237   0.0000       0.862754        23.4767 
 238   0.0000       0.876686        23.8558 
 239   0.0000       0.877479        23.8774 
 240   0.0000       0.891670        24.2636 
 241   0.0000       0.894439        24.3389 
 242   0.0000       0.908341        24.7172 
 243   0.0000       0.917862        24.9763 
 244   0.0000       0.927655        25.2428 
 245   0.0000       0.933690        25.4070 
 246   0.0000       0.943514        25.6743 
 247   0.0000       0.954258        25.9667 
 248   0.0000       0.976919        26.5833 
 249   0.0000       0.990944        26.9650 
 250   0.0000       0.995021        27.0759 
 251   0.0000       1.006435        27.3865 
 252   0.0000       1.025873        27.9154 
 253   0.0000       1.028899        27.9978 
 254   0.0000       1.075157        29.2565 
 255   0.0000       1.081587        29.4315 
 256   0.0000       1.086805        29.5735 
 257   0.0000       1.107536        30.1376 
 258   0.0000       1.114292        30.3214 
 259   0.0000       1.120016        30.4772 
 260   0.0000       1.128193        30.6997 
 261   0.0000       1.139236        31.0002 
 262   0.0000       1.141156        31.0524 
 263   0.0000       1.150773        31.3141 
 264   0.0000       1.162680        31.6381 
 265   0.0000       1.185202        32.2510 
 266   0.0000       1.195654        32.5354 
 267   0.0000       1.211997        32.9801 
 268   0.0000       1.219783        33.1920 
 269   0.0000       1.240280        33.7497 
 270   0.0000       1.254040        34.1242 
[...]
 165( 0) :     0.455386 a.u.    12.392 eV
 166( 0) :     0.475409 a.u.    12.937 eV
 167( 0) :     0.483331 a.u.    13.152 eV
 168( 0) :     0.491920 a.u.    13.386 eV
 169( 0) :     0.497522 a.u.    13.538 eV
 170( 0) :     0.499757 a.u.    13.599 eV
 171( 0) :     0.506325 a.u.    13.778 eV
 172( 0) :     0.507091 a.u.    13.799 eV
 173( 0) :     0.511078 a.u.    13.907 eV
 174( 0) :     0.523028 a.u.    14.232 eV
 175( 0) :     0.524735 a.u.    14.279 eV
 176( 0) :     0.542357 a.u.    14.758 eV
 177( 0) :     0.544199 a.u.    14.808 eV
 178( 0) :     0.547310 a.u.    14.893 eV
 179( 0) :     0.558694 a.u.    15.203 eV
 180( 0) :     0.568195 a.u.    15.461 eV
 181( 0) :     0.571048 a.u.    15.539 eV
 182( 0) :     0.575233 a.u.    15.653 eV
 183( 0) :     0.580956 a.u.    15.809 eV
 184( 0) :     0.582356 a.u.    15.847 eV
 185( 0) :     0.584427 a.u.    15.903 eV
 186( 0) :     0.589925 a.u.    16.053 eV
 187( 0) :     0.593780 a.u.    16.158 eV
 188( 0) :     0.600102 a.u.    16.330 eV
 189( 0) :     0.602666 a.u.    16.399 eV
 190( 0) :     0.605964 a.u.    16.489 eV
 191( 0) :     0.612825 a.u.    16.676 eV
 192( 0) :     0.615080 a.u.    16.737 eV
 193( 0) :     0.616227 a.u.    16.768 eV
 194( 0) :     0.618237 a.u.    16.823 eV
 195( 0) :     0.624421 a.u.    16.991 eV
 196( 0) :     0.626585 a.u.    17.050 eV
 197( 0) :     0.629147 a.u.    17.120 eV
 198( 0) :     0.630796 a.u.    17.165 eV
 199( 0) :     0.633090 a.u.    17.227 eV
 200( 0) :     0.636750 a.u.    17.327 eV
 201( 0) :     0.638336 a.u.    17.370 eV
 202( 0) :     0.642095 a.u.    17.472 eV
 203( 0) :     0.643935 a.u.    17.522 eV
 204( 0) :     0.652128 a.u.    17.745 eV
 205( 0) :     0.654394 a.u.    17.807 eV
 206( 0) :     0.657618 a.u.    17.895 eV
 207( 0) :     0.659922 a.u.    17.957 eV
 208( 0) :     0.660464 a.u.    17.972 eV
 209( 0) :     0.662096 a.u.    18.017 eV
 210( 0) :     0.666899 a.u.    18.147 eV
 211( 0) :     0.670852 a.u.    18.255 eV
 212( 0) :     0.674070 a.u.    18.342 eV
 213( 0) :     0.676953 a.u.    18.421 eV
 214( 0) :     0.679230 a.u.    18.483 eV
 215( 0) :     0.682085 a.u.    18.560 eV
 216( 0) :     0.686629 a.u.    18.684 eV
 217( 0) :     0.693525 a.u.    18.872 eV
 218( 0) :     0.696583 a.u.    18.955 eV
 219( 0) :     0.697652 a.u.    18.984 eV
 220( 0) :     0.700075 a.u.    19.050 eV
 221( 0) :     0.702274 a.u.    19.110 eV
 222( 0) :     0.705351 a.u.    19.194 eV
 223( 0) :     0.708559 a.u.    19.281 eV
 224( 0) :     0.713072 a.u.    19.404 eV
 225( 0) :     0.715653 a.u.    19.474 eV
 226( 0) :     0.719233 a.u.    19.571 eV
 227( 0) :     0.726406 a.u.    19.767 eV
 228( 0) :     0.739961 a.u.    20.135 eV
 229( 0) :     0.750256 a.u.    20.415 eV
 230( 0) :     0.750822 a.u.    20.431 eV
 231( 0) :     0.765892 a.u.    20.841 eV
 232( 0) :     0.769914 a.u.    20.950 eV
 233( 0) :     0.789670 a.u.    21.488 eV
 234( 0) :     0.799985 a.u.    21.769 eV
 235( 0) :     0.800687 a.u.    21.788 eV
 236( 0) :     0.803945 a.u.    21.876 eV
 237( 0) :     0.837679 a.u.    22.794 eV
 238( 0) :     0.857215 a.u.    23.326 eV
 239( 0) :     0.862122 a.u.    23.460 eV
 240( 0) :     0.898345 a.u.    24.445 eV
 241( 0) :     0.905474 a.u.    24.639 eV
 242( 0) :     0.908801 a.u.    24.730 eV
 243( 0) :     0.920646 a.u.    25.052 eV
 244( 0) :     0.926323 a.u.    25.207 eV
 245( 0) :     0.929303 a.u.    25.288 eV
 246( 0) :     0.937770 a.u.    25.518 eV
 247( 0) :     0.949239 a.u.    25.830 eV
 248( 0) :     0.976884 a.u.    26.582 eV
 249( 0) :     0.998282 a.u.    27.165 eV
 250( 0) :     1.006089 a.u.    27.377 eV
 251( 0) :     1.013224 a.u.    27.571 eV
 252( 0) :     1.032232 a.u.    28.088 eV
 253( 0) :     1.050156 a.u.    28.576 eV
 254( 0) :     1.058253 a.u.    28.797 eV
 255( 0) :     1.060215 a.u.    28.850 eV
 256( 0) :     1.077148 a.u.    29.311 eV
 257( 0) :     1.084401 a.u.    29.508 eV
 258( 0) :     1.097077 a.u.    29.853 eV
 259( 0) :     1.102249 a.u.    29.994 eV
 260( 0) :     1.119005 a.u.    30.450 eV
 261( 0) :     1.129176 a.u.    30.726 eV
 262( 0) :     1.143145 a.u.    31.107 eV
 263( 0) :     1.155211 a.u.    31.435 eV
 264( 0) :     1.159256 a.u.    31.545 eV
 265( 0) :     1.169616 a.u.    31.827 eV
 266( 0) :     1.180805 a.u.    32.131 eV
 267( 0) :     1.190032 a.u.    32.382 eV
 268( 0) :     1.194258 a.u.    32.497 eV
 269( 0) :     1.228489 a.u.    33.429 eV
 270( 0) :     1.260032 a.u.    34.287 eV
 271( 0) :     1.271246 a.u.    34.592 eV
 272( 0) :     1.323347 a.u.    36.010 eV
 273( 0) :     1.336322 a.u.    36.363 eV
 274( 0) :     1.345723 a.u.    36.619 eV
 275( 0) :     1.354630 a.u.    36.861 eV
 276( 0) :     1.380648 a.u.    37.569 eV
 277( 0) :     1.415351 a.u.    38.514 eV
 278( 0) :     1.433217 a.u.    39.000 eV
 279( 0) :     1.435402 a.u.    39.059 eV
 280( 0) :     1.470881 a.u.    40.025 eV
 281( 0) :     1.484248 a.u.    40.388 eV
 282( 0) :     1.509200 a.u.    41.067 eV
 283( 0) :     1.547975 a.u.    42.123 eV
 284( 0) :     1.606813 a.u.    43.724 eV
 285( 0) :     1.641340 a.u.    44.663 eV
 286( 0) :     1.655325 a.u.    45.044 eV
 287( 0) :     1.663115 a.u.    45.256 eV
 288( 0) :     1.673175 a.u.    45.529 eV
 289( 0) :     1.687725 a.u.    45.925 eV
 290( 0) :     1.692247 a.u.    46.048 eV
 291( 0) :     1.699879 a.u.    46.256 eV
 292( 0) :     1.704424 a.u.    46.380 eV
 293( 0) :     1.706940 a.u.    46.448 eV
 294( 0) :     1.709121 a.u.    46.508 eV
 295( 0) :     1.725013 a.u.    46.940 eV
 296( 0) :     1.729175 a.u.    47.053 eV
 297( 0) :     1.748526 a.u.    47.580 eV
 298( 0) :     1.750040 a.u.    47.621 eV
 299( 0) :     1.754534 a.u.    47.743 eV
 300( 0) :     1.757319 a.u.    47.819 eV
 301( 0) :     1.770890 a.u.    48.188 eV
 302( 0) :     1.775607 a.u.    48.317 eV
 303( 0) :     1.785760 a.u.    48.593 eV
 304( 0) :     1.807274 a.u.    49.178 eV
 305( 0) :     1.811437 a.u.    49.292 eV
 306( 0) :     1.822061 a.u.    49.581 eV
 307( 0) :     1.825025 a.u.    49.661 eV
 308( 0) :     1.827117 a.u.    49.718 eV
 309( 0) :     1.844187 a.u.    50.183 eV
 310( 0) :     1.864846 a.u.    50.745 eV
 311( 0) :     1.888007 a.u.    51.375 eV
 312( 0) :     1.890265 a.u.    51.437 eV
 313( 0) :     1.904039 a.u.    51.812 eV
 314( 0) :     1.907561 a.u.    51.907 eV
 315( 0) :     1.919841 a.u.    52.242 eV
 316( 0) :     1.924578 a.u.    52.370 eV
 317( 0) :     1.939797 a.u.    52.785 eV
 318( 0) :     1.945119 a.u.    52.929 eV
 319( 0) :     1.964584 a.u.    53.459 eV
 320( 0) :     1.965254 a.u.    53.477 eV
 321( 0) :     1.968716 a.u.    53.571 eV
 322( 0) :     1.971734 a.u.    53.654 eV
 323( 0) :     1.997796 a.u.    54.363 eV
 324( 0) :     2.008110 a.u.    54.643 eV
 325( 0) :     2.034328 a.u.    55.357 eV
 326( 0) :     2.037172 a.u.    55.434 eV
 327( 0) :     2.041368 a.u.    55.548 eV
 328( 0) :     2.045056 a.u.    55.649 eV
 329( 0) :     2.055249 a.u.    55.926 eV
 330( 0) :     2.064127 a.u.    56.168 eV
 331( 0) :     2.064347 a.u.    56.174 eV
 332( 0) :     2.067067 a.u.    56.248 eV
 333( 0) :     2.079635 a.u.    56.590 eV
 334( 0) :     2.083038 a.u.    56.682 eV
 335( 0) :     2.085126 a.u.    56.739 eV
 336( 0) :     2.090453 a.u.    56.884 eV
 337( 0) :     2.097123 a.u.    57.066 eV
 338( 0) :     2.110188 a.u.    57.421 eV
 339( 0) :     2.112900 a.u.    57.495 eV
 340( 0) :     2.115871 a.u.    57.576 eV
 341( 0) :     2.126471 a.u.    57.864 eV
 342( 0) :     2.166413 a.u.    58.951 eV
 343( 0) :     2.172258 a.u.    59.110 eV
 344( 0) :     2.179579 a.u.    59.309 eV
 345( 0) :     2.181805 a.u.    59.370 eV
 346( 0) :     2.209906 a.u.    60.135 eV
 347( 0) :     2.221458 a.u.    60.449 eV
 348( 0) :     2.224754 a.u.    60.539 eV
 349( 0) :     2.247019 a.u.    61.144 eV
 350( 0) :     2.273983 a.u.    61.878 eV
 351( 0) :     2.283951 a.u.    62.149 eV
 352( 0) :     2.300715 a.u.    62.606 eV
 353( 0) :     2.310783 a.u.    62.880 eV
 354( 0) :     2.316349 a.u.    63.031 eV
 355( 0) :     2.356781 a.u.    64.131 eV
 356( 0) :     2.357735 a.u.    64.157 eV
 357( 0) :     2.392566 a.u.    65.105 eV
 358( 0) :     2.446543 a.u.    66.574 eV
 359( 0) :     2.458853 a.u.    66.909 eV
 360( 0) :     2.461606 a.u.    66.984 eV
 361( 0) :     2.490712 a.u.    67.776 eV
 362( 0) :     2.498032 a.u.    67.975 eV
 363( 0) :     2.501823 a.u.    68.078 eV
 364( 0) :     2.537097 a.u.    69.038 eV
 365( 0) :     2.547168 a.u.    69.312 eV
 366( 0) :     2.556543 a.u.    69.567 eV
 367( 0) :     2.566114 a.u.    69.828 eV
 368( 0) :     2.575356 a.u.    70.079 eV
 369( 0) :     2.581047 a.u.    70.234 eV
 370( 0) :     2.581525 a.u.    70.247 eV
 371( 0) :     2.587140 a.u.    70.400 eV
 372( 0) :     2.615466 a.u.    71.170 eV
 373( 0) :     2.619347 a.u.    71.276 eV
 374( 0) :     2.627213 a.u.    71.490 eV
 375( 0) :     2.629089 a.u.    71.541 eV
 376( 0) :     2.656499 a.u.    72.287 eV
 377( 0) :     2.675895 a.u.    72.815 eV
 378( 0) :     2.710265 a.u.    73.750 eV
 379( 0) :     2.775174 a.u.    75.516 eV
 380( 0) :     2.783119 a.u.    75.733 eV
 381( 0) :     2.783853 a.u.    75.753 eV
 382( 0) :     2.887597 a.u.    78.576 eV
 383( 0) :     2.893485 a.u.    78.736 eV
 384( 0) :     2.954067 a.u.    80.384 eV
 385( 0) :     3.038009 a.u.    82.668 eV
 386( 0) :     3.038781 a.u.    82.689 eV
 387( 0) :     3.077785 a.u.    83.751 eV
 388( 0) :     3.220968 a.u.    87.647 eV
 389( 0) :     3.222771 a.u.    87.696 eV
 390( 0) :     3.639896 a.u.    99.047 eV
 391( 0) :     3.641747 a.u.    99.097 eV
-------
TIMINGS
-------

Total SCF time: 0 days 0 hours 1 min 56 sec 

Total time                  ....     116.180 sec
Sum of individual times     ....     117.002 sec  (100.7%)

Fock matrix formation       ....      98.755 sec  ( 85.0%)
  Coulomb formation         ....      24.183 sec  ( 24.5% of F)
  Split-RI-J                ....      24.132 sec  ( 24.4% of F)
  XC integration            ....      74.825 sec  ( 75.8% of F)
    Basis function eval.    ....      23.325 sec  ( 31.2% of XC)
    Density eval.           ....      30.036 sec  ( 40.1% of XC)
    XC-Functional eval.     ....       3.766 sec  (  5.0% of XC)
    XC-Potential eval.      ....      16.239 sec  ( 21.7% of XC)
Diagonalization             ....       1.613 sec  (  1.4%)
Density matrix formation    ....       0.184 sec  (  0.2%)
Population analysis         ....       1.023 sec  (  0.9%)
Initial guess               ....       1.361 sec  (  1.2%)
Orbital Transformation      ....       0.000 sec  (  0.0%)
Orbital Orthonormalization  ....       1.335 sec  (  1.1%)
DIIS solution               ....       0.505 sec  (  0.4%)
Grid generation             ....      13.560 sec  ( 11.7%)

-------------------------   --------------------
FINAL SINGLE POINT ENERGY     -1020.756663512529
-------------------------   --------------------

                                *** OPTIMIZATION RUN DONE ***
   --->>> g-tensor requested, so NeedSOC=true

                            ***************************************
                            *     ORCA property calculations      *
                            ***************************************

                                    ---------------------
                                    Active property flags
                                    ---------------------
   (+) Dipole Moment
   (+) g-tensor
   (+) D-tensor
   (+) Spin-Orbit Integrals are needed


------------------------------------------------------------------------------
                       ORCA ELECTRIC PROPERTIES CALCULATION
------------------------------------------------------------------------------

Dipole Moment Calculation                       ... on
Quadrupole Moment Calculation                   ... off
Polarizability Calculation                      ... off
GBWName                                         ... N-BiradOpt.gbw
Electron density file                           ... N-BiradOpt.scfp.tmp

-------------
DIPOLE MOMENT
-------------
                                X             Y             Z
Electronic contribution:      1.34765       0.59233       0.92730
Nuclear contribution   :     -1.20418      -0.59910      -0.44975
                        -----------------------------------------
Total Dipole Moment    :      0.14347      -0.00677       0.47755
                        -----------------------------------------
Magnitude (a.u.)       :      0.49868
Magnitude (Debye)      :      1.26755

------------------------------------------------------------------------------
                         ORCA SPIN-ORBIT COUPLING CALCULATION
------------------------------------------------------------------------------

GBW file                                    ... N-BiradOpt.gbw
Input density                               ... N-BiradOpt.scfp.tmp
Output integrals                            ... N-BiradOpt
Operator type                               ... Mean-field/Effective potential
   One-Electron Terms                       ... 1
   Coulomb Contribution                     ... 2
   Exchange Contribution                    ... 3
   Correlation Contribution                 ... 0
   Maximum number of centers                ... 4
Setting up the integration grid             ... done
Evaluating density on the grid              ... (NumEl=  180.001305) done
Evaluating Coulomb term semi-analytically   ... done
One-Center Exchange (+SOO)                  ... done
Evaluating the spin-orbit operator          ... done
Total time for SOC: 619.638
------------------------------------------------------------------------------
                                ORCA EPR/NMR CALCULATION
------------------------------------------------------------------------------

GBWName                      ... N-BiradOpt.gbw
Electron density file        ... N-BiradOpt.scfp.tmp
Spin density file            ... N-BiradOpt.scfr.tmp
Spin-orbit integrals         ... N-BiradOpt
Origin for angular momentum  ... Center of electronic charge
Coordinates of the origin    ...    1.10437742   -6.61308875   -7.02589784 (bohrs)
Details of the CP(SCF) procedure:
       Solver   = POPLE   
       MaxIter  =    64   
       Tolerance=    1.000e-06
       Op-0     =   0- 90 =>  91-391
       Op-1     =   0- 88 =>  89-391
Multiplicity                 ... 3
g-tensor                     ... 2
D-tensor                     ... Spin-Spin only
D(SS)-algorithm              ... input spin density
Using LibInt in CPSCF-CP

Calculating angular momentum integrals      ... done
Forming RHS of the CP-SCF equations         ... done


Forming final perturbed densities           ... done

Magnetic field perturbation calculated in  0.469 sec
 Tensor is right-handed.


-------------------
ELECTRONIC G-MATRIX
-------------------

 The g-matrix: 
              2.0056289   -0.0014991   -0.0001181
             -0.0014375    2.0075154    0.0004882
             -0.0001440    0.0005535    2.0048852

 gel          2.0023193    2.0023193    2.0023193
 gRMC        -0.0002878   -0.0002878   -0.0002878
 gDSO(tot)    0.0003692    0.0003828    0.0001682
 gPSO(tot)    0.0022834    0.0025368    0.0061948
             ----------   ----------   ----------
 g(tot)       2.0046840    2.0049510    2.0083944 iso=  2.0060098
 Delta-g      0.0023647    0.0026317    0.0060752 iso=  0.0036905
 Orientation: 
  X           0.5487527    0.6918645    0.4692483
  Y           0.4177506    0.2592606   -0.8707861
  Z          -0.7241236    0.6738750   -0.1467568

Notes:  (1) The principal values are square roots of the eigenvalues of gT*g
        (2) Orientations are eigenvectors of gT*g
        (3) Individual contributions are projections of the full matrices onto the eigenvectors of gT*g


Starting the spin-spin zero-field-splitting computation (DIRECT)...

WARNING: With dss direct the Exchange and Coulomb contribution to
         the spin-spin ZFS are not correct!

                        ... done with spin-spin calculation

---------------------------
ZERO-FIELD-SPLITTING TENSOR
---------------------------

raw-matrix : 
  -0.011895    -0.028752    -0.001011  
  -0.028752     0.036666     0.006213  
  -0.001011     0.006213    -0.024770  
 Tensor is right-handed.

diagonalized D matrix : 
  -0.026948    -0.023559     0.050507  

  -0.616940     0.666705    -0.418197  
  -0.347798     0.245708     0.904801  
   0.705989     0.703656     0.080292  


Direction X=1 Y=0 Z=2
D   =     0.075760  cm**-1
E/D =     0.022368

SPIN-SPIN-PART
                   0          1          2    
      0      -0.011895  -0.028752  -0.001011
      1      -0.028752   0.036666   0.006213
      2      -0.001011   0.006213  -0.024770
Exchange and Coulomb parts of SS (raw)
Coulomb
                   0          1          2    
      0      -0.030766  -0.027442   0.006035
      1      -0.027442   0.067552  -0.012063
      2       0.006035  -0.012063  -0.036786
Exchange
                   0          1          2    
      0       0.018870  -0.001310  -0.007046
      1      -0.001310  -0.030886   0.018276
      2      -0.007046   0.018276   0.012016
One-, two-, three- and four-center SS contributions (raw)
One-Center            (AA|AA):
                   0          1          2    
      0      -0.016482  -0.055237  -0.003377
      1      -0.055237   0.060177   0.018108
      2      -0.003377   0.018108  -0.043696
Two-Center-Coulomb    (AA|BB):
                   0          1          2    
      0      -0.000733   0.033739   0.006907
      1       0.033739  -0.018787  -0.020538
      2       0.006907  -0.020538   0.019520
Two-Center-Exchange   (AB|BA):
                   0          1          2    
      0      -0.000068   0.000072   0.000337
      1       0.000072   0.000145  -0.000020
      2       0.000337  -0.000020  -0.000076
Two-Center-hybrid     (AA|AB):
                   0          1          2    
      0       0.005798  -0.001172  -0.003728
      1      -0.001172  -0.009313   0.005685
      2      -0.003728   0.005685   0.003514
Three-Center-Coulomb  (AA|BC):
                   0          1          2    
      0       0.000250  -0.006630  -0.001507
      1      -0.006630   0.003654   0.003779
      2      -0.001507   0.003779  -0.003904
Three-Center-Exchange (AB|AC):
                   0          1          2    
      0      -0.000780  -0.000882  -0.000154
      1      -0.000882   0.001784  -0.000263
      2      -0.000154  -0.000263  -0.001004
Four-Center           (AB|CD):
                   0          1          2    
      0       0.000119   0.001358   0.000512
      1       0.001358  -0.000995  -0.000538
      2       0.000512  -0.000538   0.000876

Individual contributions (in cm**-1)
                                   D          E
SPIN-SPIN                  :   0.07576    0.00169
  Exchange vs Coulomb
  Coulomb                  :   0.10244   -0.00116
  Exchange                 :  -0.02668    0.00286
  One through four center contributions:
  1-center                 :     0.136      0.005
  2-center-Coulomb         :    -0.067     -0.004
  2-center-Exchange        :     0.000      0.000
  2-center-Hybrid          :    -0.007     -0.000
  3-center-Coulomb         :     0.013      0.000
  3-center_Exchange        :     0.003     -0.000
  4-center                 :    -0.003      0.000


Timings for individual modules:

Sum of individual times         ...     6193.589 sec (= 103.226 min)
GTO integral calculation        ...       10.613 sec (=   0.177 min)   0.2 %
Spin-Orbit-Coupling Matrices    ...      619.637 sec (=  10.327 min)  10.0 %
SCF iterations                  ...     2547.620 sec (=  42.460 min)  41.1 %
SCF-level EPR/NMR calculation   ...      938.320 sec (=  15.639 min)  15.1 %
SCF Gradient evaluation         ...     2065.046 sec (=  34.417 min)  33.3 %
Geometry relaxation             ...       12.352 sec (=   0.206 min)   0.2 %
                             ****ORCA TERMINATED NORMALLY****
TOTAL RUN TIME: 0 days 1 hours 43 minutes 24 seconds 384 msec
