
                                 *****************
                                 * O   R   C   A *
                                 *****************

           --- An Ab Initio, DFT and Semiempirical electronic structure package ---

                  #######################################################
                  #                        -***-                        #
                  #  Department of molecular theory and spectroscopy    #
                  #              Directorship: Frank Neese              #
                  # Max Planck Institute for Chemical Energy Conversion #
                  #                  D-45470 Muelheim/Ruhr              #
                  #                       Germany                       #
                  #                                                     #
                  #                  All rights reserved                #
                  #                        -***-                        #
                  #######################################################


                         Program Version 3.0.1 -  RELEASE  -


 With contributions from (in alphabetic order):
   Ute Becker             : Parallelization
   Dmytro Bykov           : SCF Hessian
   Dmitry Ganyushin       : Spin-Orbit,Spin-Spin,Magnetic field MRCI
   Andreas Hansen         : Spin unrestricted coupled pair/coupled cluster methods
   Dimitrios Liakos       : Extrapolation schemes; parallel MDCI
   Robert Izsak           : Overlap fitted RIJCOSX, COSX-SCS-MP3
   Christian Kollmar      : KDIIS, OOCD, Brueckner-CCSD(T), CCSD density
   Simone Kossmann        : Meta GGA functionals, TD-DFT gradient, OOMP2, MP2 Hessian
   Taras Petrenko         : DFT Hessian,TD-DFT gradient, ASA and ECA modules, normal mode analysis, Resonance Raman, ABS, FL, XAS/XES, NRVS
   Christoph Reimann      : Effective Core Potentials
   Michael Roemelt        : Restricted open shell CIS
   Christoph Riplinger    : Improved optimizer, TS searches, QM/MM, DLPNO-CCSD
   Barbara Sandhoefer     : DKH picture change effects
   Igor Schapiro          : Molecular dynamics
   Kantharuban Sivalingam : CASSCF convergence, NEVPT2
   Boris Wezisla          : Elementary symmetry handling
   Frank Wennmohs         : Technical directorship


 We gratefully acknowledge several colleagues who have allowed us to
 interface, adapt or use parts of their codes:
   Stefan Grimme, W. Hujo, H. Kruse, T. Risthaus : VdW corrections, initial TS optimization,
                                                   DFT functionals, gCP
   Ed Valeev                                     : LibInt (2-el integral package), F12 methods
   Garnet Chan, S. Sharma, R. Olivares           : DMRG
   Ulf Ekstrom                                   : XCFun DFT Library
   Mihaly Kallay                                 : mrcc  (arbitrary order and MRCC methods)
   Andreas Klamt, Michael Diedenhofen            : otool_cosmo (COSMO solvation model)
   Frank Weinhold                                : gennbo (NPA and NBO analysis)


 Your calculation uses the libint2 library for the computation of 2-el integrals
 For citations please refer to: http://libint.valeyev.net

 This ORCA versions uses:
   CBLAS   interface :  Fast vector & matrix operations
   LAPACKE interface :  Fast linear algebra routines


Your calculation utilizes the basis: cc-VDZ
Cite in your paper:
 H     : T.H. Dunning, Jr. J. Chem. Phys. 90, 1007 (1989).
 He    : D.E. Woon and T.H. Dunning, Jr. J. Chem. Phys. 100, 2975 (1994).
Li - Ne: T.H. Dunning, Jr. J. Chem. Phys. 90, 1007 (1989).
Na - Mg: D.E. Woon and T.H. Dunning, Jr.  (to be published)
Al - Ar: D.E. Woon and T.H. Dunning, Jr.  J. Chem. Phys. 98, 1358 (1993).

Your calculation utilizes polarization functions from the basis: cc-pVDZ
Cite in your paper:
 H     : T.H. Dunning, Jr. J. Chem. Phys. 90, 1007 (1989).
 He    : D.E. Woon and T.H. Dunning, Jr. J. Chem. Phys. 100, 2975 (1994).
Li - Ne: T.H. Dunning, Jr. J. Chem. Phys. 90, 1007 (1989).
Na - Mg: D.E. Woon and T.H. Dunning, Jr.  (to be published)
Al - Ar: D.E. Woon and T.H. Dunning, Jr.  J. Chem. Phys. 98, 1358 (1993).

SCAN-COORDS
================================================================================
                                        WARNINGS
                       Please study these warnings very carefully!
================================================================================
Now building the actual basis set


INFO   : the flag for use of LIBINT has been found!

================================================================================
                                       INPUT FILE
================================================================================
NAME = input.txt
|  1> ! UKS B3LYP cc-pVDZ TightSCF Grid5  
|  2> %coords
|  3>  CTyp   xyz 
|  4>  Charge 1 
|  5>  Mult   2 
|  6>  Units  Angs 
|  7>   coords
|  8>    C      -0.66699   3.93978   0.00000 
|  9>    C       0.51504   4.68037   0.00000 
| 10>    C       1.75010   4.00602   0.00000 
| 11>    C       1.80453   2.60332   0.00000 
| 12>    C       0.62497   1.82725   0.00000 
| 13>    C       0.62835   0.36343   0.00000 
| 14>    C       1.83310  -0.37283   0.00000 
| 15>    C       1.83639  -1.76586   0.00000 
| 16>    C       0.62835  -2.51934   0.00000 
| 17>    C       0.66699  -3.93978   0.00000 
| 18>    C      -0.51504  -4.68037   0.00000 
| 19>    C      -1.75010  -4.00602   0.00000 
| 20>    C      -1.80453  -2.60332   0.00000 
| 21>    C      -0.62497  -1.82725   0.00000 
| 22>    C      -0.62835  -0.36343   0.00000 
| 23>    C      -1.83310   0.37283   0.00000 
| 24>    C      -1.83639   1.76586   0.00000 
| 25>    C      -0.62835   2.51934   0.00000 
| 26>    H      -1.63057   4.44129   0.00000 
| 27>    H       0.48432   5.76491   0.00000 
| 28>    H       2.67553   4.57350   0.00000 
| 29>    H       2.78075   2.13296   0.00000 
| 30>    H       2.78656   0.14010   0.00000 
| 31>    H       2.78477  -2.29635   0.00000 
| 32>    H       1.63057  -4.44129   0.00000 
| 33>    H      -0.48432  -5.76491   0.00000 
| 34>    H      -2.67553  -4.57350   0.00000 
| 35>    H      -2.78075  -2.13296   0.00000 
| 36>    H      -2.78656  -0.14010   0.00000 
| 37>    H      -2.78477   2.29635   0.00000 
| 38>   end
| 39> end
| 40> 
| 41> %eprnmr
| 42>  ori IGLO
| 43>  LocMet PM
| 44>  gtensor 1
| 45>  Nuclei = all C { aiso, adip, shift, fgrad }
| 46>  Nuclei = all H { aiso, adip, shift, fgrad }
| 47> end
| 48> 
| 49> 
| 50>                          ****END OF INPUT****
================================================================================

                       ****************************
                       * Single Point Calculation *
                       ****************************

---------------------------------
CARTESIAN COORDINATES (ANGSTROEM)
---------------------------------
  C     -0.666990    3.939780    0.000000
  C      0.515040    4.680370    0.000000
  C      1.750100    4.006020    0.000000
  C      1.804530    2.603320    0.000000
  C      0.624970    1.827250    0.000000
  C      0.628350    0.363430    0.000000
  C      1.833100   -0.372830    0.000000
  C      1.836390   -1.765860    0.000000
  C      0.628350   -2.519340    0.000000
  C      0.666990   -3.939780    0.000000
  C     -0.515040   -4.680370    0.000000
  C     -1.750100   -4.006020    0.000000
  C     -1.804530   -2.603320    0.000000
  C     -0.624970   -1.827250    0.000000
  C     -0.628350   -0.363430    0.000000
  C     -1.833100    0.372830    0.000000
  C     -1.836390    1.765860    0.000000
  C     -0.628350    2.519340    0.000000
  H     -1.630570    4.441290    0.000000
  H      0.484320    5.764910    0.000000
  H      2.675530    4.573500    0.000000
  H      2.780750    2.132960    0.000000
  H      2.786560    0.140100    0.000000
  H      2.784770   -2.296350    0.000000
  H      1.630570   -4.441290    0.000000
  H     -0.484320   -5.764910    0.000000
  H     -2.675530   -4.573500    0.000000
  H     -2.780750   -2.132960    0.000000
  H     -2.786560   -0.140100    0.000000
  H     -2.784770    2.296350    0.000000

----------------------------
CARTESIAN COORDINATES (A.U.)
----------------------------
  NO LB      ZA    FRAG    MASS        X           Y           Z
   0 C     6.0000    0    12.011         -1.260428434064136          7.445105227900268          0.000000000000000
   1 C     6.0000    0    12.011          0.973284548014802          8.844617505421008          0.000000000000000
   2 C     6.0000    0    12.011          3.307209706975582          7.570280687011214          0.000000000000000
   3 C     6.0000    0    12.011          3.410067500444916          4.919561838959873          0.000000000000000
   4 C     6.0000    0    12.011          1.181022141916765          3.453002078207607          0.000000000000000
   5 C     6.0000    0    12.011          1.187409416249418          0.686783168851000          0.000000000000000
   6 C     6.0000    0    12.011          3.464056976091047         -0.704546594509860          0.000000000000000
   7 C     6.0000    0    12.011          3.470274175071647         -3.336991790846181          0.000000000000000
   8 C     6.0000    0    12.011          1.187409416249418         -4.760862638233166          0.000000000000000
   9 C     6.0000    0    12.011          1.260428434064136         -7.445105227900268          0.000000000000000
  10 C     6.0000    0    12.011         -0.973284548014802         -8.844617505421008          0.000000000000000
  11 C     6.0000    0    12.011         -3.307209706975582         -7.570280687011214          0.000000000000000
  12 C     6.0000    0    12.011         -3.410067500444916         -4.919561838959873          0.000000000000000
  13 C     6.0000    0    12.011         -1.181022141916765         -3.453002078207607          0.000000000000000
  14 C     6.0000    0    12.011         -1.187409416249418         -0.686783168851000          0.000000000000000
  15 C     6.0000    0    12.011         -3.464056976091047          0.704546594509860          0.000000000000000
  16 C     6.0000    0    12.011         -3.470274175071647          3.336991790846181          0.000000000000000
  17 C     6.0000    0    12.011         -1.187409416249418          4.760862638233166          0.000000000000000
  18 H     1.0000    0     1.008         -3.081330742187975          8.392821781323116          0.000000000000000
  19 H     1.0000    0     1.008          0.915232161180741         10.894101086703964          0.000000000000000
  20 H     1.0000    0     1.008          5.056018963090327          8.642662473488844          0.000000000000000
  21 H     1.0000    0     1.008          5.254855946901520          4.030710254608674          0.000000000000000
  22 H     1.0000    0     1.008          5.265835255739603          0.264750631362367          0.000000000000000
  23 H     1.0000    0     1.008          5.262452645959884         -4.339472607630066          0.000000000000000
  24 H     1.0000    0     1.008          3.081330742187975         -8.392821781323116          0.000000000000000
  25 H     1.0000    0     1.008         -0.915232161180741        -10.894101086703964          0.000000000000000
  26 H     1.0000    0     1.008         -5.056018963090327         -8.642662473488844          0.000000000000000
  27 H     1.0000    0     1.008         -5.254855946901520         -4.030710254608674          0.000000000000000
  28 H     1.0000    0     1.008         -5.265835255739603         -0.264750631362367          0.000000000000000
  29 H     1.0000    0     1.008         -5.262452645959884          4.339472607630066          0.000000000000000

--------------------------------
INTERNAL COORDINATES (ANGSTROEM)
--------------------------------
 C      0   0   0   0.000000     0.000     0.000
 C      1   0   0   1.394872     0.000     0.000
 C      2   1   0   1.407168   119.296     0.000
 C      3   2   1   1.403756   120.857     0.000
 C      4   3   2   1.411965   121.120     0.000
 C      5   4   3   1.463824   123.210   180.000
 C      6   5   4   1.411914   121.563     0.000
 C      7   6   5   1.393034   121.566   180.000
 C      8   7   6   1.423760   121.817     0.000
 C      9   8   7   1.420965   120.394   180.000
 C     10   9   8   1.394872   120.511   180.000
 C     11  10   9   1.407168   119.296     0.000
 C     12  11  10   1.403756   120.857     0.000
 C     13  12  11   1.411965   121.120     0.000
 C      6   5   4   1.451765   119.912   180.000
 C     15   6   5   1.411914   118.525     0.000
 C     16  15   6   1.393034   121.566     0.000
 C      1   2   3   1.420965   120.511     0.000
 H      1   2   3   1.086277   120.436   180.000
 H      2   1   3   1.084975   120.446   180.000
 H      3   2   1   1.085566   119.848   180.000
 H      4   3   2   1.083625   117.948   180.000
 H      7   6   5   1.082674   120.291     0.000
 H      8   7   6   1.086667   119.356   180.000
 H     10   9   8   1.086277   119.054     0.000
 H     11  10   9   1.084975   120.446   180.000
 H     12  11  10   1.085566   119.848   180.000
 H     13  12  11   1.083625   117.948   180.000
 H     16  15   6   1.082674   120.291   180.000
 H     17  16  15   1.086667   119.356   180.000

---------------------------
INTERNAL COORDINATES (A.U.)
---------------------------
 C      0   0   0   0.000000     0.000     0.000
 C      1   0   0   2.635926     0.000     0.000
 C      2   1   0   2.659162   119.296     0.000
 C      3   2   1   2.652714   120.857     0.000
 C      4   3   2   2.668228   121.120     0.000
 C      5   4   3   2.766226   123.210   180.000
 C      6   5   4   2.668131   121.563     0.000
 C      7   6   5   2.632453   121.566   180.000
 C      8   7   6   2.690517   121.817     0.000
 C      9   8   7   2.685236   120.394   180.000
 C     10   9   8   2.635926   120.511   180.000
 C     11  10   9   2.659162   119.296     0.000
 C     12  11  10   2.652714   120.857     0.000
 C     13  12  11   2.668228   121.120     0.000
 C      6   5   4   2.743437   119.912   180.000
 C     15   6   5   2.668131   118.525     0.000
 C     16  15   6   2.632453   121.566     0.000
 C      1   2   3   2.685236   120.511     0.000
 H      1   2   3   2.052767   120.436   180.000
 H      2   1   3   2.050306   120.446   180.000
 H      3   2   1   2.051423   119.848   180.000
 H      4   3   2   2.047755   117.948   180.000
 H      7   6   5   2.045957   120.291     0.000
 H      8   7   6   2.053502   119.356   180.000
 H     10   9   8   2.052767   119.054     0.000
 H     11  10   9   2.050306   120.446   180.000
 H     12  11  10   2.051423   119.848   180.000
 H     13  12  11   2.047755   117.948   180.000
 H     16  15   6   2.045957   120.291   180.000
 H     17  16  15   2.053502   119.356   180.000

---------------------
BASIS SET INFORMATION
---------------------
There are 2 groups of distinct atoms

 Group   1 Type C   : 17s4p1d contracted to 3s2p1d pattern {881/31/1}
 Group   2 Type H   : 4s1p contracted to 2s1p pattern {31/1}

Atom   0C    basis set group =>   1
Atom   1C    basis set group =>   1
Atom   2C    basis set group =>   1
Atom   3C    basis set group =>   1
Atom   4C    basis set group =>   1
Atom   5C    basis set group =>   1
Atom   6C    basis set group =>   1
Atom   7C    basis set group =>   1
Atom   8C    basis set group =>   1
Atom   9C    basis set group =>   1
Atom  10C    basis set group =>   1
Atom  11C    basis set group =>   1
Atom  12C    basis set group =>   1
Atom  13C    basis set group =>   1
Atom  14C    basis set group =>   1
Atom  15C    basis set group =>   1
Atom  16C    basis set group =>   1
Atom  17C    basis set group =>   1
Atom  18H    basis set group =>   2
Atom  19H    basis set group =>   2
Atom  20H    basis set group =>   2
Atom  21H    basis set group =>   2
Atom  22H    basis set group =>   2
Atom  23H    basis set group =>   2
Atom  24H    basis set group =>   2
Atom  25H    basis set group =>   2
Atom  26H    basis set group =>   2
Atom  27H    basis set group =>   2
Atom  28H    basis set group =>   2
Atom  29H    basis set group =>   2
------------------------------------------------------------------------------
                           ORCA GTO INTEGRAL CALCULATION
------------------------------------------------------------------------------

                         BASIS SET STATISTICS AND STARTUP INFO

 # of primitive gaussian shells          ...  456
 # of primitive gaussian functions       ...  696
 # of contracted shell                   ...  144
 # of contracted basis functions         ...  312
 Highest angular momentum                ...    2
 Maximum contraction depth               ...    8
 Integral package used                   ... LIBINT
 Integral threshhold            Thresh   ... 2.500e-011
 Primitive cut-off              TCut     ... 2.500e-012


                              INTEGRAL EVALUATION

 One electron integrals                  ... done
 Pre-screening matrix                    ... done
 Shell pair data                         ... done (   0.016 sec)

-------------------------------------------------------------------------------
                                 ORCA SCF
-------------------------------------------------------------------------------

------------
SCF SETTINGS
------------
Hamiltonian:
 Density Functional     Method          .... DFT(GTOs)
 Exchange Functional    Exchange        .... B88
   X-Alpha parameter    XAlpha          ....  0.666667
   Becke's b parameter  XBeta           ....  0.004200
 Correlation Functional Correlation     .... LYP
 LDA part of GGA corr.  LDAOpt          .... VWN-5
 Gradients option       PostSCFGGA      .... off
 Hybrid DFT is turned on
   Fraction HF Exchange ScalHFX         ....  0.200000
   Scaling of DF-GGA-X  ScalDFX         ....  0.720000
   Scaling of DF-GGA-C  ScalDFC         ....  0.810000
   Scaling of DF-LDA-C  ScalLDAC        ....  1.000000
   Perturbative correction              ....  0.000000
   NL short-range parameter             ....  4.800000


General Settings:
 Integral files         IntName         .... input
 Hartree-Fock type      HFTyp           .... UHF
 Total Charge           Charge          ....    1
 Multiplicity           Mult            ....    2
 Number of Electrons    NEL             ....  119
 Basis Dimension        Dim             ....  312
 Nuclear Repulsion      ENuc            ....   1130.6980641023 Eh

Convergence Acceleration:
 DIIS                   CNVDIIS         .... on
   Start iteration      DIISMaxIt       ....    12
   Startup error        DIISStart       ....  0.200000
   # of expansion vecs  DIISMaxEq       ....     5
   Bias factor          DIISBfac        ....   1.050
   Max. coefficient     DIISMaxC        ....  10.000
 Newton-Raphson         CNVNR           .... off
 SOSCF                  CNVSOSCF        .... off
 Level Shifting         CNVShift        .... on
   Level shift para.    LevelShift      ....    0.2500
   Turn off err/grad.   ShiftErr        ....    0.0010
 Zerner damping         CNVZerner       .... off
 Static damping         CNVDamp         .... on
   Fraction old density DampFac         ....    0.7000
   Max. Damping (<1)    DampMax         ....    0.9800
   Min. Damping (>=0)   DampMin         ....    0.0000
   Turn off err/grad.   DampErr         ....    0.1000
 Fernandez-Rico         CNVRico         .... off

SCF Procedure:
 Maximum # iterations   MaxIter         ....   125
 SCF integral mode      SCFMode         .... Direct
   Integral package                     .... LIBINT
 Reset frequeny         DirectResetFreq ....    20
 Integral Threshold     Thresh          .... 2.500e-011 Eh
 Primitive CutOff       TCut            .... 2.500e-012 Eh

Convergence Tolerance:
 Convergence Check Mode ConvCheckMode   .... Total+1el-Energy
 Energy Change          TolE            .... 1.000e-008 Eh
 1-El. energy change                    .... 1.000e-005 Eh
 DIIS Error             TolErr          .... 5.000e-007


Diagonalization of the overlap matrix:
Smallest eigenvalue                        ... 8.962e-005
Time for diagonalization                   ...    0.031 sec
Threshold for overlap eigenvalues          ... 1.000e-008
Number of eigenvalues below threshold      ... 0
Time for construction of square roots      ...    0.000 sec
Total time needed                          ...    0.031 sec

-------------------
DFT GRID GENERATION
-------------------

General Integration Accuracy     IntAcc      ...  5.010
Radial Grid Type                 RadialGrid  ... Gauss-Chebyshev
Angular Grid (max. acc.)         AngularGrid ... Lebedev-434
Angular grid pruning method      GridPruning ... 3 (G Style)
Weight generation scheme         WeightScheme... Becke
Basis function cutoff            BFCut       ...   1.0000e-011
Integration weight cutoff        WCut        ...   1.0000e-014
Grids for H and He will be reduced by one unit

# of grid points (after initial pruning)     ... 272868 (   0.2 sec)
# of grid points (after weights+screening)   ... 240076 (   1.7 sec)
nearest neighbour list constructed           ...    0.0 sec
Grid point re-assignment to atoms done       ...    0.0 sec
Grid point division into batches done        ...    1.3 sec
Reduced shell lists constructed in    4.4 sec

Total number of grid points                  ...   240076
Total number of batches                      ...     3766
Average number of points per batch           ...       63
Average number of grid points per atom       ...     8003
Average number of shells per batch           ...    73.53 (51.06%)
Average number of basis functions per batch  ...   154.82 (49.62%)
Average number of large shells per batch     ...    49.71 (67.61%)
Average number of large basis fcns per batch ...   107.24 (69.27%)
Maximum spatial batch extension              ...  20.60, 16.20, 23.70 au
Average spatial batch extension              ...   1.87,  1.72,  2.10 au

Time for grid setup =    6.318 sec

------------------------------
INITIAL GUESS: MODEL POTENTIAL
------------------------------
Loading Hartree-Fock densities                     ... done
Calculating cut-offs                               ... done
Setting up the integral package                    ... done
Initializing the effective Hamiltonian             ... done
Starting the Coulomb interaction                   ... done (   1.2 sec)
Reading the grid                                   ... done
Mapping shells                                     ... done
Starting the XC term evaluation                    ... done (   4.3 sec)
  promolecular density results
     # of electrons  =    119.994314923
     EX              =    -96.091113123
     EC              =     -4.035411889
     EX+EC           =   -100.126525011
Transforming the Hamiltonian                       ... done (   0.0 sec)
Diagonalizing the Hamiltonian                      ... done (   0.0 sec)
Back transforming the eigenvectors                 ... done (   0.0 sec)
Now organizing SCF variables                       ... done
                      ------------------
                      INITIAL GUESS DONE (  12.0 sec)
                      ------------------
--------------
SCF ITERATIONS
--------------
ITER       Energy         Delta-E        Max-DP      RMS-DP      [F,P]     Damp
               ***  Starting incremental Fock matrix formation  ***
  0   -692.3057797853   0.000000000000 0.03701155  0.00125926  0.1002929 0.7000
  1   -692.3973316670  -0.091551881718 0.02749475  0.00093035  0.0547945 0.7000
                               ***Turning on DIIS***
  2   -692.4412558567  -0.043924189683 0.05978156  0.00192321  0.0277811 0.0000
  3   -692.5077214560  -0.066465599296 0.00919919  0.00033614  0.0331617 0.0000
  4   -692.5210958589  -0.013374402904 0.00291199  0.00010139  0.0065542 0.0000
  5   -692.5218694212  -0.000773562354 0.00118641  0.00002793  0.0015219 0.0000
  6   -692.5219733923  -0.000103971082 0.00173329  0.00002562  0.0003912 0.0000
  7   -692.5220249833  -0.000051590950 0.00071182  0.00000860  0.0004056 0.0000
  8   -692.5220370314  -0.000012048141 0.00052467  0.00000693  0.0002323 0.0000
  9   -692.5220442351  -0.000007203743 0.00056839  0.00000745  0.0000828 0.0000
 10   -692.5220491706  -0.000004935463 0.00024509  0.00000330  0.0000660 0.0000
 11   -692.5220504383  -0.000001267711 0.00021387  0.00000276  0.0000282 0.0000
 12   -692.5220510474  -0.000000609120 0.00011658  0.00000151  0.0000224 0.0000
 13   -692.5220512160  -0.000000168591 0.00010413  0.00000145  0.0000094 0.0000
 14   -692.5220512643  -0.000000048307 0.00002198  0.00000030  0.0000075 0.0000
 15   -692.5220512658  -0.000000001468 0.00001202  0.00000020  0.0000019 0.0000
                            ***DIIS convergence achieved***

               *****************************************************
               *                     SUCCESS                       *
               *           SCF CONVERGED AFTER  16 CYCLES          *
               *****************************************************


----------------
TOTAL SCF ENERGY
----------------

Total Energy       :         -692.52205127 Eh          -18844.48305 eV

Components:
Nuclear Repulsion  :         1130.69806410 Eh           30767.85853 eV
Electronic Energy  :        -1823.22011537 Eh          -49612.34158 eV

One Electron Energy:        -3161.27793332 Eh          -86022.74588 eV
Two Electron Energy:         1338.05781795 Eh           36410.40430 eV

Virial components:
Potential Energy   :        -1380.52903645 Eh          -37566.10491 eV
Kinetic Energy     :          688.00698518 Eh           18721.62186 eV
Virial Ratio       :            2.00656253


DFT components:
N(Alpha)           :       60.000044127252 electrons
N(Beta)            :       59.000042829115 electrons
N(Total)           :      119.000086956367 electrons
E(X)               :      -77.260845753368 Eh       
E(C)               :       -4.720843953475 Eh       
E(XC)              :      -81.981689706843 Eh       

---------------
SCF CONVERGENCE
---------------

  Last Energy change         ...   1.1846e-010  Tolerance :  1.0000e-008
  Last MAX-Density change    ...   2.7155e-006  Tolerance :  1.0000e-007
  Last RMS-Density change    ...   4.9617e-008  Tolerance :  5.0000e-009
  Last DIIS Error            ...   9.6789e-007  Tolerance :  5.0000e-007

             **** THE GBW FILE WAS UPDATED (input.gbw) ****
             **** DENSITY FILE WAS UPDATED (input.scfp.tmp) ****
             **** ENERGY FILE WAS UPDATED (input.en.tmp) ****
----------------------
UHF SPIN CONTAMINATION
----------------------

Warning: in a DFT calculation there is little theoretical justification to 
         calculate <S**2> as in Hartree-Fock theory. We will do it anyways
         but you should keep in mind that the values have only limited relevance

Expectation value of <S**2>     :     0.763983
Ideal value S*(S+1) for S=0.5   :     0.750000
Deviation                       :     0.013983

----------------
ORBITAL ENERGIES
----------------
                 SPIN UP ORBITALS
  NO   OCC          E(Eh)            E(eV) 
   0   1.0000     -10.369016      -282.1553 
   1   1.0000     -10.368704      -282.1468 
   2   1.0000     -10.360102      -281.9127 
   3   1.0000     -10.360101      -281.9127 
   4   1.0000     -10.350600      -281.6541 
   5   1.0000     -10.350599      -281.6541 
   6   1.0000     -10.347958      -281.5822 
   7   1.0000     -10.347958      -281.5822 
   8   1.0000     -10.344838      -281.4974 
   9   1.0000     -10.344837      -281.4973 
  10   1.0000     -10.341077      -281.3950 
  11   1.0000     -10.341077      -281.3950 
  12   1.0000     -10.340861      -281.3891 
  13   1.0000     -10.340861      -281.3891 
  14   1.0000     -10.337055      -281.2856 
  15   1.0000     -10.337055      -281.2856 
  16   1.0000     -10.330388      -281.1042 
  17   1.0000     -10.330388      -281.1042 
  18   1.0000      -1.039415       -28.2839 
  19   1.0000      -1.010505       -27.4972 
  20   1.0000      -0.974844       -26.5269 
  21   1.0000      -0.962017       -26.1778 
  22   1.0000      -0.922274       -25.0964 
  23   1.0000      -0.915432       -24.9102 
  24   1.0000      -0.884607       -24.0714 
  25   1.0000      -0.872022       -23.7289 
  26   1.0000      -0.861250       -23.4358 
  27   1.0000      -0.784599       -21.3500 
  28   1.0000      -0.778528       -21.1848 
  29   1.0000      -0.774053       -21.0631 
  30   1.0000      -0.744057       -20.2468 
  31   1.0000      -0.731980       -19.9182 
  32   1.0000      -0.688112       -18.7245 
  33   1.0000      -0.671398       -18.2697 
  34   1.0000      -0.655856       -17.8468 
  35   1.0000      -0.652627       -17.7589 
  36   1.0000      -0.627729       -17.0814 
  37   1.0000      -0.607671       -16.5356 
  38   1.0000      -0.605155       -16.4671 
  39   1.0000      -0.584472       -15.9043 
  40   1.0000      -0.577944       -15.7267 
  41   1.0000      -0.573793       -15.6137 
  42   1.0000      -0.561850       -15.2887 
  43   1.0000      -0.559215       -15.2170 
  44   1.0000      -0.555402       -15.1132 
  45   1.0000      -0.545279       -14.8378 
  46   1.0000      -0.540688       -14.7129 
  47   1.0000      -0.524213       -14.2646 
  48   1.0000      -0.522315       -14.2129 
  49   1.0000      -0.497822       -13.5464 
  50   1.0000      -0.488280       -13.2868 
  51   1.0000      -0.481919       -13.1137 
  52   1.0000      -0.478259       -13.0141 
  53   1.0000      -0.472877       -12.8676 
  54   1.0000      -0.469674       -12.7805 
  55   1.0000      -0.434306       -11.8181 
  56   1.0000      -0.419146       -11.4055 
  57   1.0000      -0.389332       -10.5943 
  58   1.0000      -0.372562       -10.1379 
  59   1.0000      -0.358982        -9.7684 
  60   0.0000      -0.214666        -5.8414 
  61   0.0000      -0.183339        -4.9889 
  62   0.0000      -0.174026        -4.7355 
  63   0.0000      -0.131946        -3.5904 
  64   0.0000      -0.127010        -3.4561 
  65   0.0000      -0.080297        -2.1850 
  66   0.0000      -0.061960        -1.6860 
  67   0.0000      -0.057426        -1.5626 
  68   0.0000      -0.049980        -1.3600 
  69   0.0000      -0.046916        -1.2767 
  70   0.0000      -0.031113        -0.8466 
  71   0.0000      -0.025098        -0.6829 
  72   0.0000      -0.005991        -0.1630 
  73   0.0000       0.003232         0.0879 
  74   0.0000       0.013545         0.3686 
  75   0.0000       0.021098         0.5741 
  76   0.0000       0.023033         0.6268 
  77   0.0000       0.037168         1.0114 
  78   0.0000       0.061146         1.6639 
  79   0.0000       0.070325         1.9136 
  80   0.0000       0.075309         2.0493 
  81   0.0000       0.076678         2.0865 
  82   0.0000       0.095630         2.6022 
  83   0.0000       0.106394         2.8951 
  84   0.0000       0.118496         3.2244 
  85   0.0000       0.127691         3.4747 
  86   0.0000       0.137720         3.7476 
  87   0.0000       0.137722         3.7476 
  88   0.0000       0.151624         4.1259 
  89   0.0000       0.160386         4.3643 
  90   0.0000       0.187463         5.1011 
  91   0.0000       0.188847         5.1388 
  92   0.0000       0.216628         5.8948 
  93   0.0000       0.230685         6.2773 
  94   0.0000       0.261899         7.1266 
  95   0.0000       0.267237         7.2719 
  96   0.0000       0.289549         7.8790 
  97   0.0000       0.294570         8.0157 
  98   0.0000       0.298184         8.1140 
  99   0.0000       0.310121         8.4388 
 100   0.0000       0.318240         8.6597 
 101   0.0000       0.320900         8.7321 
 102   0.0000       0.321332         8.7439 
 103   0.0000       0.331503         9.0206 
 104   0.0000       0.335529         9.1302 
 105   0.0000       0.338177         9.2023 
 106   0.0000       0.347723         9.4620 
 107   0.0000       0.351632         9.5684 
 108   0.0000       0.354250         9.6396 
 109   0.0000       0.357562         9.7298 
 110   0.0000       0.358461         9.7542 
 111   0.0000       0.370210        10.0739 
 112   0.0000       0.378396        10.2967 
 113   0.0000       0.379501        10.3267 
 114   0.0000       0.382933        10.4201 
 115   0.0000       0.383238        10.4284 
 116   0.0000       0.386154        10.5078 
 117   0.0000       0.391664        10.6577 
 118   0.0000       0.394582        10.7371 
 119   0.0000       0.399780        10.8786 
 120   0.0000       0.399998        10.8845 
 121   0.0000       0.411644        11.2014 
 122   0.0000       0.414468        11.2783 
 123   0.0000       0.415151        11.2968 
 124   0.0000       0.427245        11.6259 
 125   0.0000       0.438807        11.9405 
 126   0.0000       0.441674        12.0186 
 127   0.0000       0.443933        12.0800 
 128   0.0000       0.447419        12.1749 
 129   0.0000       0.486376        13.2350 
 130   0.0000       0.504404        13.7255 
 131   0.0000       0.507595        13.8124 
 132   0.0000       0.514385        13.9971 
 133   0.0000       0.518745        14.1158 
 134   0.0000       0.526442        14.3252 
 135   0.0000       0.530220        14.4280 
 136   0.0000       0.540265        14.7013 
 137   0.0000       0.546740        14.8776 
 138   0.0000       0.551939        15.0190 
 139   0.0000       0.562130        15.2963 
 140   0.0000       0.565289        15.3823 
 141   0.0000       0.570953        15.5364 
 142   0.0000       0.595124        16.1942 
 143   0.0000       0.606536        16.5047 
 144   0.0000       0.610306        16.6073 
 145   0.0000       0.613586        16.6965 
 146   0.0000       0.615948        16.7608 
 147   0.0000       0.665231        18.1019 
 148   0.0000       0.666692        18.1416 
 149   0.0000       0.702686        19.1211 
 150   0.0000       0.714233        19.4353 
 151   0.0000       0.720639        19.6096 
 152   0.0000       0.722994        19.6737 
 153   0.0000       0.746737        20.3197 
 154   0.0000       0.750114        20.4116 
 155   0.0000       0.760399        20.6915 
 156   0.0000       0.761584        20.7238 
 157   0.0000       0.772359        21.0169 
 158   0.0000       0.773876        21.0582 
 159   0.0000       0.776299        21.1242 
 160   0.0000       0.797336        21.6966 
 161   0.0000       0.799453        21.7542 
 162   0.0000       0.801251        21.8032 
 163   0.0000       0.810408        22.0523 
 164   0.0000       0.810824        22.0636 
 165   0.0000       0.817371        22.2418 
 166   0.0000       0.830302        22.5937 
 167   0.0000       0.833554        22.6822 
 168   0.0000       0.836756        22.7693 
 169   0.0000       0.854669        23.2567 
 170   0.0000       0.857617        23.3370 
 171   0.0000       0.864174        23.5154 
 172   0.0000       0.866379        23.5754 
 173   0.0000       0.874968        23.8091 
 174   0.0000       0.887782        24.1578 
 175   0.0000       0.905570        24.6418 
 176   0.0000       0.911002        24.7896 
 177   0.0000       0.913270        24.8514 
 178   0.0000       0.919704        25.0264 
 179   0.0000       0.931708        25.3531 
 180   0.0000       0.932817        25.3832 
 181   0.0000       0.946106        25.7448 
 182   0.0000       0.954641        25.9771 
 183   0.0000       0.972615        26.4662 
 184   0.0000       0.977739        26.6056 
 185   0.0000       0.987557        26.8728 
 186   0.0000       1.038123        28.2488 
 187   0.0000       1.054413        28.6920 
 188   0.0000       1.157224        31.4897 
 189   0.0000       1.171353        31.8741 
 190   0.0000       1.178984        32.0818 
 191   0.0000       1.201692        32.6997 
 192   0.0000       1.204235        32.7689 
 193   0.0000       1.215332        33.0709 
 194   0.0000       1.217696        33.1352 
 195   0.0000       1.237208        33.6662 
 196   0.0000       1.240159        33.7464 
 197   0.0000       1.246667        33.9235 
 198   0.0000       1.260245        34.2930 
 199   0.0000       1.272754        34.6334 
 200   0.0000       1.289301        35.0837 
 201   0.0000       1.302500        35.4428 
 202   0.0000       1.308683        35.6111 
 203   0.0000       1.337818        36.4039 
 204   0.0000       1.339058        36.4376 
 205   0.0000       1.339520        36.4502 
 206   0.0000       1.349539        36.7228 
 207   0.0000       1.353837        36.8398 
 208   0.0000       1.359601        36.9966 
 209   0.0000       1.366989        37.1976 
 210   0.0000       1.386093        37.7175 
 211   0.0000       1.404637        38.2221 
 212   0.0000       1.415142        38.5080 
 213   0.0000       1.419779        38.6342 
 214   0.0000       1.426500        38.8170 
 215   0.0000       1.438690        39.1488 
 216   0.0000       1.457893        39.6713 
 217   0.0000       1.476090        40.1664 
 218   0.0000       1.478691        40.2372 
 219   0.0000       1.488139        40.4943 
 220   0.0000       1.490152        40.5491 
 221   0.0000       1.492100        40.6021 
 222   0.0000       1.494875        40.6776 
 223   0.0000       1.502736        40.8915 
 224   0.0000       1.508410        41.0459 
 225   0.0000       1.511708        41.1357 
 226   0.0000       1.524887        41.4943 
 227   0.0000       1.525887        41.5215 
 228   0.0000       1.527495        41.5652 
 229   0.0000       1.537272        41.8313 
 230   0.0000       1.552930        42.2574 
 231   0.0000       1.560404        42.4608 
 232   0.0000       1.562363        42.5141 
 233   0.0000       1.604421        43.6585 
 234   0.0000       1.611245        43.8442 
 235   0.0000       1.618855        44.0513 
 236   0.0000       1.621816        44.1319 
 237   0.0000       1.622744        44.1571 
 238   0.0000       1.624102        44.1941 
 239   0.0000       1.626281        44.2534 
 240   0.0000       1.629061        44.3290 
 241   0.0000       1.639854        44.6227 
 242   0.0000       1.648584        44.8603 
 243   0.0000       1.671970        45.4966 
 244   0.0000       1.682313        45.7781 
 245   0.0000       1.685100        45.8539 
 246   0.0000       1.694867        46.1197 
 247   0.0000       1.701242        46.2931 
 248   0.0000       1.716408        46.7058 
 249   0.0000       1.718914        46.7740 
 250   0.0000       1.724492        46.9258 
 251   0.0000       1.737029        47.2670 
 252   0.0000       1.755948        47.7818 
 253   0.0000       1.757329        47.8193 
 254   0.0000       1.773212        48.2516 
 255   0.0000       1.780593        48.4524 
 256   0.0000       1.782869        48.5143 
 257   0.0000       1.802835        49.0576 
 258   0.0000       1.808828        49.2207 
 259   0.0000       1.820474        49.5376 
 260   0.0000       1.821786        49.5733 
 261   0.0000       1.854405        50.4609 
 262   0.0000       1.856641        50.5218 
 263   0.0000       1.880750        51.1778 
 264   0.0000       1.894834        51.5611 
 265   0.0000       1.911477        52.0139 
 266   0.0000       1.916478        52.1500 
 267   0.0000       1.923519        52.3416 
 268   0.0000       1.933049        52.6009 
 269   0.0000       1.946040        52.9544 
 270   0.0000       1.950644        53.0797 
 271   0.0000       1.976230        53.7760 
 272   0.0000       1.992988        54.2320 
 273   0.0000       2.035506        55.3889 
 274   0.0000       2.039104        55.4868 
 275   0.0000       2.055531        55.9338 
 276   0.0000       2.074644        56.4539 
 277   0.0000       2.091533        56.9135 
 278   0.0000       2.092825        56.9487 
 279   0.0000       2.104433        57.2645 
 280   0.0000       2.142819        58.3091 
 281   0.0000       2.201540        59.9070 
 282   0.0000       2.213146        60.2228 
 283   0.0000       2.215002        60.2733 
 284   0.0000       2.251311        61.2613 
 285   0.0000       2.265038        61.6348 
 286   0.0000       2.279813        62.0369 
 287   0.0000       2.282425        62.1079 
 288   0.0000       2.330631        63.4197 
 289   0.0000       2.333299        63.4923 
 290   0.0000       2.363563        64.3158 
 291   0.0000       2.371319        64.5269 
 292   0.0000       2.381648        64.8079 
 293   0.0000       2.486352        67.6571 
 294   0.0000       2.509274        68.2808 
 295   0.0000       2.511737        68.3478 
 296   0.0000       2.539778        69.1109 
 297   0.0000       2.566818        69.8467 
 298   0.0000       2.587563        70.4112 
 299   0.0000       2.587961        70.4220 
 300   0.0000       2.604895        70.8828 
 301   0.0000       2.605982        70.9124 
 302   0.0000       2.654629        72.2361 
 303   0.0000       2.683055        73.0096 
 304   0.0000       2.715545        73.8937 
 305   0.0000       2.761423        75.1421 
 306   0.0000       2.790431        75.9315 
 307   0.0000       2.803195        76.2788 
 308   0.0000       3.182587        86.6026 
 309   0.0000       3.193718        86.9055 
 310   0.0000       3.362249        91.4914 
 311   0.0000       3.444295        93.7240 

                 SPIN DOWN ORBITALS
  NO   OCC          E(Eh)            E(eV) 
   0   1.0000     -10.367390      -282.1110 
   1   1.0000     -10.367090      -282.1029 
   2   1.0000     -10.356888      -281.8252 
   3   1.0000     -10.356886      -281.8252 
   4   1.0000     -10.350689      -281.6566 
   5   1.0000     -10.350688      -281.6565 
   6   1.0000     -10.347975      -281.5827 
   7   1.0000     -10.347975      -281.5827 
   8   1.0000     -10.345583      -281.5176 
   9   1.0000     -10.345581      -281.5176 
  10   1.0000     -10.339912      -281.3633 
  11   1.0000     -10.339912      -281.3633 
  12   1.0000     -10.339183      -281.3435 
  13   1.0000     -10.339183      -281.3435 
  14   1.0000     -10.336055      -281.2583 
  15   1.0000     -10.336054      -281.2583 
  16   1.0000     -10.330699      -281.1126 
  17   1.0000     -10.330699      -281.1126 
  18   1.0000      -1.036107       -28.1939 
  19   1.0000      -1.008350       -27.4386 
  20   1.0000      -0.971647       -26.4399 
  21   1.0000      -0.957584       -26.0572 
  22   1.0000      -0.917541       -24.9675 
  23   1.0000      -0.913795       -24.8656 
  24   1.0000      -0.880932       -23.9714 
  25   1.0000      -0.871466       -23.7138 
  26   1.0000      -0.854203       -23.2440 
  27   1.0000      -0.781080       -21.2543 
  28   1.0000      -0.776667       -21.1342 
  29   1.0000      -0.771862       -21.0034 
  30   1.0000      -0.741867       -20.1872 
  31   1.0000      -0.729828       -19.8596 
  32   1.0000      -0.686362       -18.6768 
  33   1.0000      -0.670086       -18.2340 
  34   1.0000      -0.654291       -17.8042 
  35   1.0000      -0.650275       -17.6949 
  36   1.0000      -0.626072       -17.0363 
  37   1.0000      -0.606621       -16.5070 
  38   1.0000      -0.603804       -16.4304 
  39   1.0000      -0.584066       -15.8932 
  40   1.0000      -0.576810       -15.6958 
  41   1.0000      -0.572440       -15.5769 
  42   1.0000      -0.560525       -15.2527 
  43   1.0000      -0.553599       -15.0642 
  44   1.0000      -0.550361       -14.9761 
  45   1.0000      -0.543891       -14.8000 
  46   1.0000      -0.539259       -14.6740 
  47   1.0000      -0.521503       -14.1908 
  48   1.0000      -0.518250       -14.1023 
  49   1.0000      -0.496656       -13.5147 
  50   1.0000      -0.487822       -13.2743 
  51   1.0000      -0.476828       -12.9752 
  52   1.0000      -0.472738       -12.8639 
  53   1.0000      -0.469046       -12.7634 
  54   1.0000      -0.458316       -12.4714 
  55   1.0000      -0.418831       -11.3970 
  56   1.0000      -0.414951       -11.2914 
  57   1.0000      -0.374306       -10.1854 
  58   1.0000      -0.371903       -10.1200 
  59   0.0000      -0.309081        -8.4105 
  60   0.0000      -0.198049        -5.3892 
  61   0.0000      -0.178104        -4.8465 
  62   0.0000      -0.164088        -4.4651 
  63   0.0000      -0.122140        -3.3236 
  64   0.0000      -0.120996        -3.2925 
  65   0.0000      -0.069671        -1.8958 
  66   0.0000      -0.061421        -1.6714 
  67   0.0000      -0.056924        -1.5490 
  68   0.0000      -0.046227        -1.2579 
  69   0.0000      -0.040789        -1.1099 
  70   0.0000      -0.029902        -0.8137 
  71   0.0000      -0.024709        -0.6724 
  72   0.0000      -0.005166        -0.1406 
  73   0.0000       0.003949         0.1075 
  74   0.0000       0.014652         0.3987 
  75   0.0000       0.023685         0.6445 
  76   0.0000       0.025967         0.7066 
  77   0.0000       0.038296         1.0421 
  78   0.0000       0.062349         1.6966 
  79   0.0000       0.077118         2.0985 
  80   0.0000       0.077533         2.1098 
  81   0.0000       0.077675         2.1136 
  82   0.0000       0.096731         2.6322 
  83   0.0000       0.107171         2.9163 
  84   0.0000       0.119487         3.2514 
  85   0.0000       0.128855         3.5063 
  86   0.0000       0.138390         3.7658 
  87   0.0000       0.139807         3.8043 
  88   0.0000       0.152442         4.1482 
  89   0.0000       0.161648         4.3987 
  90   0.0000       0.188879         5.1397 
  91   0.0000       0.190443         5.1822 
  92   0.0000       0.217856         5.9282 
  93   0.0000       0.232102         6.3158 
  94   0.0000       0.263687         7.1753 
  95   0.0000       0.267835         7.2882 
  96   0.0000       0.293189         7.9781 
  97   0.0000       0.297144         8.0857 
  98   0.0000       0.302739         8.2379 
  99   0.0000       0.312459         8.5024 
 100   0.0000       0.320737         8.7277 
 101   0.0000       0.322498         8.7756 
 102   0.0000       0.326502         8.8846 
 103   0.0000       0.336713         9.1624 
 104   0.0000       0.338350         9.2070 
 105   0.0000       0.340360         9.2617 
 106   0.0000       0.351621         9.5681 
 107   0.0000       0.353008         9.6058 
 108   0.0000       0.356299         9.6954 
 109   0.0000       0.360931         9.8214 
 110   0.0000       0.366393         9.9701 
 111   0.0000       0.373149        10.1539 
 112   0.0000       0.380124        10.3437 
 113   0.0000       0.382233        10.4011 
 114   0.0000       0.385058        10.4780 
 115   0.0000       0.386264        10.5108 
 116   0.0000       0.386853        10.5268 
 117   0.0000       0.393653        10.7118 
 118   0.0000       0.396254        10.7826 
 119   0.0000       0.401369        10.9218 
 120   0.0000       0.405013        11.0210 
 121   0.0000       0.413154        11.2425 
 122   0.0000       0.416523        11.3342 
 123   0.0000       0.420416        11.4401 
 124   0.0000       0.428329        11.6554 
 125   0.0000       0.440599        11.9893 
 126   0.0000       0.446841        12.1592 
 127   0.0000       0.447670        12.1817 
 128   0.0000       0.448348        12.2002 
 129   0.0000       0.490194        13.3389 
 130   0.0000       0.508245        13.8300 
 131   0.0000       0.508786        13.8448 
 132   0.0000       0.515212        14.0196 
 133   0.0000       0.522381        14.2147 
 134   0.0000       0.527106        14.3433 
 135   0.0000       0.531197        14.4546 
 136   0.0000       0.541231        14.7276 
 137   0.0000       0.551067        14.9953 
 138   0.0000       0.552877        15.0445 
 139   0.0000       0.563283        15.3277 
 140   0.0000       0.566876        15.4255 
 141   0.0000       0.574597        15.6356 
 142   0.0000       0.596340        16.2272 
 143   0.0000       0.607703        16.5364 
 144   0.0000       0.611645        16.6437 
 145   0.0000       0.614320        16.7165 
 146   0.0000       0.617259        16.7965 
 147   0.0000       0.667674        18.1683 
 148   0.0000       0.670148        18.2356 
 149   0.0000       0.706722        19.2309 
 150   0.0000       0.715937        19.4816 
 151   0.0000       0.721478        19.6324 
 152   0.0000       0.723920        19.6989 
 153   0.0000       0.750029        20.4093 
 154   0.0000       0.751215        20.4416 
 155   0.0000       0.762986        20.7619 
 156   0.0000       0.763363        20.7722 
 157   0.0000       0.775354        21.0984 
 158   0.0000       0.775772        21.1098 
 159   0.0000       0.777583        21.1591 
 160   0.0000       0.798342        21.7240 
 161   0.0000       0.800101        21.7719 
 162   0.0000       0.802345        21.8329 
 163   0.0000       0.812969        22.1220 
 164   0.0000       0.815490        22.1906 
 165   0.0000       0.821998        22.3677 
 166   0.0000       0.831866        22.6362 
 167   0.0000       0.837699        22.7950 
 168   0.0000       0.840194        22.8628 
 169   0.0000       0.856233        23.2993 
 170   0.0000       0.862304        23.4645 
 171   0.0000       0.867701        23.6113 
 172   0.0000       0.868533        23.6340 
 173   0.0000       0.878199        23.8970 
 174   0.0000       0.888759        24.1844 
 175   0.0000       0.909537        24.7498 
 176   0.0000       0.912261        24.8239 
 177   0.0000       0.914186        24.8763 
 178   0.0000       0.921596        25.0779 
 179   0.0000       0.933264        25.3954 
 180   0.0000       0.938022        25.5249 
 181   0.0000       0.947189        25.7743 
 182   0.0000       0.956979        26.0407 
 183   0.0000       0.974348        26.5134 
 184   0.0000       0.979843        26.6629 
 185   0.0000       0.988736        26.9049 
 186   0.0000       1.039392        28.2833 
 187   0.0000       1.057333        28.7715 
 188   0.0000       1.159075        31.5400 
 189   0.0000       1.172431        31.9035 
 190   0.0000       1.180873        32.1332 
 191   0.0000       1.203267        32.7425 
 192   0.0000       1.207264        32.8513 
 193   0.0000       1.216611        33.1057 
 194   0.0000       1.221918        33.2501 
 195   0.0000       1.240103        33.7449 
 196   0.0000       1.242080        33.7987 
 197   0.0000       1.248712        33.9792 
 198   0.0000       1.265088        34.4248 
 199   0.0000       1.276564        34.7371 
 200   0.0000       1.289865        35.0990 
 201   0.0000       1.304095        35.4862 
 202   0.0000       1.311486        35.6874 
 203   0.0000       1.339854        36.4593 
 204   0.0000       1.340171        36.4679 
 205   0.0000       1.340718        36.4828 
 206   0.0000       1.350909        36.7601 
 207   0.0000       1.355525        36.8857 
 208   0.0000       1.361269        37.0420 
 209   0.0000       1.367618        37.2148 
 210   0.0000       1.388681        37.7879 
 211   0.0000       1.405653        38.2498 
 212   0.0000       1.416566        38.5467 
 213   0.0000       1.421512        38.6813 
 214   0.0000       1.428431        38.8696 
 215   0.0000       1.440101        39.1871 
 216   0.0000       1.461388        39.7664 
 217   0.0000       1.476936        40.1895 
 218   0.0000       1.480032        40.2737 
 219   0.0000       1.489203        40.5233 
 220   0.0000       1.492100        40.6021 
 221   0.0000       1.494706        40.6730 
 222   0.0000       1.496465        40.7209 
 223   0.0000       1.504918        40.9509 
 224   0.0000       1.510308        41.0976 
 225   0.0000       1.513692        41.1897 
 226   0.0000       1.525805        41.5193 
 227   0.0000       1.527255        41.5587 
 228   0.0000       1.529427        41.6178 
 229   0.0000       1.538615        41.8678 
 230   0.0000       1.556930        42.3662 
 231   0.0000       1.561828        42.4995 
 232   0.0000       1.563263        42.5386 
 233   0.0000       1.607374        43.7389 
 234   0.0000       1.612846        43.8878 
 235   0.0000       1.620609        44.0990 
 236   0.0000       1.624476        44.2042 
 237   0.0000       1.625113        44.2216 
 238   0.0000       1.626212        44.2515 
 239   0.0000       1.630738        44.3746 
 240   0.0000       1.631748        44.4021 
 241   0.0000       1.641151        44.6580 
 242   0.0000       1.649624        44.8885 
 243   0.0000       1.673822        45.5470 
 244   0.0000       1.685152        45.8553 
 245   0.0000       1.686855        45.9017 
 246   0.0000       1.699082        46.2344 
 247   0.0000       1.704105        46.3711 
 248   0.0000       1.718183        46.7541 
 249   0.0000       1.722487        46.8713 
 250   0.0000       1.725425        46.9512 
 251   0.0000       1.737952        47.2921 
 252   0.0000       1.757083        47.8127 
 253   0.0000       1.759674        47.8832 
 254   0.0000       1.773909        48.2705 
 255   0.0000       1.783265        48.5251 
 256   0.0000       1.784404        48.5561 
 257   0.0000       1.803806        49.0841 
 258   0.0000       1.809244        49.2320 
 259   0.0000       1.822646        49.5967 
 260   0.0000       1.824785        49.6549 
 261   0.0000       1.857871        50.5552 
 262   0.0000       1.858434        50.5706 
 263   0.0000       1.883385        51.2495 
 264   0.0000       1.896486        51.6060 
 265   0.0000       1.913184        52.0604 
 266   0.0000       1.918822        52.2138 
 267   0.0000       1.927423        52.4478 
 268   0.0000       1.934929        52.6521 
 269   0.0000       1.950179        53.0671 
 270   0.0000       1.953687        53.1625 
 271   0.0000       1.977518        53.8110 
 272   0.0000       1.995987        54.3136 
 273   0.0000       2.038076        55.4589 
 274   0.0000       2.040870        55.5349 
 275   0.0000       2.058467        56.0137 
 276   0.0000       2.077382        56.5284 
 277   0.0000       2.092736        56.9462 
 278   0.0000       2.096123        57.0384 
 279   0.0000       2.105822        57.3023 
 280   0.0000       2.143956        58.3400 
 281   0.0000       2.205383        60.0115 
 282   0.0000       2.213926        60.2440 
 283   0.0000       2.219337        60.3912 
 284   0.0000       2.252064        61.2818 
 285   0.0000       2.265393        61.6445 
 286   0.0000       2.280536        62.0565 
 287   0.0000       2.282931        62.1217 
 288   0.0000       2.332189        63.4621 
 289   0.0000       2.335410        63.5497 
 290   0.0000       2.364839        64.3505 
 291   0.0000       2.372502        64.5591 
 292   0.0000       2.384239        64.8784 
 293   0.0000       2.488103        67.7047 
 294   0.0000       2.510726        68.3203 
 295   0.0000       2.513469        68.3950 
 296   0.0000       2.540409        69.1280 
 297   0.0000       2.568310        69.8873 
 298   0.0000       2.588282        70.4307 
 299   0.0000       2.589636        70.4676 
 300   0.0000       2.605337        70.8948 
 301   0.0000       2.607708        70.9593 
 302   0.0000       2.656047        72.2747 
 303   0.0000       2.684380        73.0457 
 304   0.0000       2.716662        73.9241 
 305   0.0000       2.763129        75.1886 
 306   0.0000       2.791581        75.9628 
 307   0.0000       2.804294        76.3087 
 308   0.0000       3.184158        86.6453 
 309   0.0000       3.194896        86.9375 
 310   0.0000       3.363121        91.5152 
 311   0.0000       3.445545        93.7580 

                    ********************************
                    * MULLIKEN POPULATION ANALYSIS *
                    ********************************

--------------------------------------------
MULLIKEN ATOMIC CHARGES AND SPIN POPULATIONS
--------------------------------------------
   0 C :    0.052437    0.131441
   1 C :    0.076899   -0.022532
   2 C :    0.092394    0.069303
   3 C :   -0.014789    0.073882
   4 C :    0.067185   -0.016123
   5 C :    0.077451    0.106733
   6 C :   -0.003662    0.006594
   7 C :    0.091067    0.221732
   8 C :    0.034411   -0.051454
   9 C :    0.052438    0.131439
  10 C :    0.076898   -0.022530
  11 C :    0.092394    0.069302
  12 C :   -0.014790    0.073884
  13 C :    0.067186   -0.016123
  14 C :    0.077449    0.106734
  15 C :   -0.003662    0.006594
  16 C :    0.091067    0.221733
  17 C :    0.034411   -0.051456
  18 H :    0.000546   -0.005062
  19 H :    0.015156    0.000490
  20 H :    0.014690   -0.003215
  21 H :   -0.005360   -0.002598
  22 H :   -0.003574   -0.000417
  23 H :    0.005150   -0.008775
  24 H :    0.000546   -0.005062
  25 H :    0.015156    0.000490
  26 H :    0.014690   -0.003216
  27 H :   -0.005360   -0.002598
  28 H :   -0.003574   -0.000416
  29 H :    0.005150   -0.008774
Sum of atomic charges         :    1.0000000
Sum of atomic spin populations:    1.0000000

-----------------------------------------------------
MULLIKEN REDUCED ORBITAL CHARGES AND SPIN POPULATIONS
-----------------------------------------------------
CHARGE
  0 C s       :     3.162133  s :     3.162133
      pz      :     0.905090  p :     2.720603
      px      :     0.850190
      py      :     0.965323
      dz2     :     0.003117  d :     0.064827
      dxz     :     0.006375
      dyz     :     0.010617
      dx2y2   :     0.022457
      dxy     :     0.022262
  1 C s       :     3.123266  s :     3.123266
      pz      :     0.926387  p :     2.735497
      px      :     0.950073
      py      :     0.859037
      dz2     :     0.003018  d :     0.064339
      dxz     :     0.010514
      dyz     :     0.004750
      dx2y2   :     0.026742
      dxy     :     0.019314
  2 C s       :     3.116791  s :     3.116791
      pz      :     0.901123  p :     2.725606
      px      :     0.878266
      py      :     0.946216
      dz2     :     0.003049  d :     0.065210
      dxz     :     0.006500
      dyz     :     0.009617
      dx2y2   :     0.020858
      dxy     :     0.025186
  3 C s       :     3.167605  s :     3.167605
      pz      :     0.927075  p :     2.782567
      px      :     0.919195
      py      :     0.936297
      dz2     :     0.003119  d :     0.064617
      dxz     :     0.005847
      dyz     :     0.010692
      dx2y2   :     0.020759
      dxy     :     0.024200
  4 C s       :     3.177403  s :     3.177403
      pz      :     0.966977  p :     2.675131
      px      :     0.895660
      py      :     0.812494
      dz2     :     0.004867  d :     0.080281
      dxz     :     0.012298
      dyz     :     0.011214
      dx2y2   :     0.026902
      dxy     :     0.025000
  5 C s       :     3.208950  s :     3.208950
      pz      :     0.910311  p :     2.631887
      px      :     0.897935
      py      :     0.823641
      dz2     :     0.004857  d :     0.081711
      dxz     :     0.011329
      dyz     :     0.013536
      dx2y2   :     0.026110
      dxy     :     0.025881
  6 C s       :     3.168414  s :     3.168414
      pz      :     0.941084  p :     2.771450
      px      :     0.909986
      py      :     0.920381
      dz2     :     0.003041  d :     0.063798
      dxz     :     0.005851
      dyz     :     0.009538
      dx2y2   :     0.020567
      dxy     :     0.024800
  7 C s       :     3.177389  s :     3.177389
      pz      :     0.853907  p :     2.664558
      px      :     0.899074
      py      :     0.911577
      dz2     :     0.003118  d :     0.066986
      dxz     :     0.006057
      dyz     :     0.012306
      dx2y2   :     0.020301
      dxy     :     0.025204
  8 C s       :     3.122945  s :     3.122945
      pz      :     0.964370  p :     2.759513
      px      :     0.961635
      py      :     0.833509
      dz2     :     0.004827  d :     0.083130
      dxz     :     0.010978
      dyz     :     0.012374
      dx2y2   :     0.026827
      dxy     :     0.028124
  9 C s       :     3.162132  s :     3.162132
      pz      :     0.905090  p :     2.720602
      px      :     0.850190
      py      :     0.965323
      dz2     :     0.003117  d :     0.064827
      dxz     :     0.006375
      dyz     :     0.010617
      dx2y2   :     0.022457
      dxy     :     0.022262
 10 C s       :     3.123267  s :     3.123267
      pz      :     0.926387  p :     2.735497
      px      :     0.950073
      py      :     0.859037
      dz2     :     0.003018  d :     0.064339
      dxz     :     0.010514
      dyz     :     0.004750
      dx2y2   :     0.026742
      dxy     :     0.019314
 11 C s       :     3.116790  s :     3.116790
      pz      :     0.901123  p :     2.725606
      px      :     0.878266
      py      :     0.946216
      dz2     :     0.003049  d :     0.065210
      dxz     :     0.006500
      dyz     :     0.009617
      dx2y2   :     0.020858
      dxy     :     0.025186
 12 C s       :     3.167606  s :     3.167606
      pz      :     0.927075  p :     2.782567
      px      :     0.919196
      py      :     0.936297
      dz2     :     0.003119  d :     0.064617
      dxz     :     0.005847
      dyz     :     0.010692
      dx2y2   :     0.020759
      dxy     :     0.024200
 13 C s       :     3.177403  s :     3.177403
      pz      :     0.966977  p :     2.675130
      px      :     0.895661
      py      :     0.812493
      dz2     :     0.004867  d :     0.080281
      dxz     :     0.012298
      dyz     :     0.011214
      dx2y2   :     0.026902
      dxy     :     0.025000
 14 C s       :     3.208951  s :     3.208951
      pz      :     0.910311  p :     2.631889
      px      :     0.897935
      py      :     0.823642
      dz2     :     0.004857  d :     0.081711
      dxz     :     0.011329
      dyz     :     0.013536
      dx2y2   :     0.026110
      dxy     :     0.025881
 15 C s       :     3.168414  s :     3.168414
      pz      :     0.941084  p :     2.771451
      px      :     0.909986
      py      :     0.920381
      dz2     :     0.003041  d :     0.063798
      dxz     :     0.005851
      dyz     :     0.009538
      dx2y2   :     0.020567
      dxy     :     0.024800
 16 C s       :     3.177389  s :     3.177389
      pz      :     0.853907  p :     2.664558
      px      :     0.899074
      py      :     0.911578
      dz2     :     0.003118  d :     0.066986
      dxz     :     0.006057
      dyz     :     0.012306
      dx2y2   :     0.020301
      dxy     :     0.025204
 17 C s       :     3.122946  s :     3.122946
      pz      :     0.964370  p :     2.759512
      px      :     0.961635
      py      :     0.833508
      dz2     :     0.004827  d :     0.083130
      dxz     :     0.010978
      dyz     :     0.012374
      dx2y2   :     0.026827
      dxy     :     0.028124
 18 H s       :     0.970591  s :     0.970591
      pz      :     0.005549  p :     0.028863
      px      :     0.015695
      py      :     0.007619
 19 H s       :     0.955840  s :     0.955840
      pz      :     0.005613  p :     0.029004
      px      :     0.004183
      py      :     0.019208
 20 H s       :     0.956431  s :     0.956431
      pz      :     0.005444  p :     0.028879
      px      :     0.014988
      py      :     0.008448
 21 H s       :     0.976475  s :     0.976475
      pz      :     0.005802  p :     0.028885
      px      :     0.015977
      py      :     0.007106
 22 H s       :     0.974573  s :     0.974573
      pz      :     0.005804  p :     0.029001
      px      :     0.015512
      py      :     0.007685
 23 H s       :     0.966225  s :     0.966225
      pz      :     0.005071  p :     0.028625
      px      :     0.015680
      py      :     0.007874
 24 H s       :     0.970591  s :     0.970591
      pz      :     0.005549  p :     0.028863
      px      :     0.015695
      py      :     0.007619
 25 H s       :     0.955840  s :     0.955840
      pz      :     0.005613  p :     0.029004
      px      :     0.004183
      py      :     0.019208
 26 H s       :     0.956430  s :     0.956430
      pz      :     0.005444  p :     0.028879
      px      :     0.014988
      py      :     0.008448
 27 H s       :     0.976476  s :     0.976476
      pz      :     0.005802  p :     0.028885
      px      :     0.015977
      py      :     0.007106
 28 H s       :     0.974573  s :     0.974573
      pz      :     0.005804  p :     0.029001
      px      :     0.015512
      py      :     0.007685
 29 H s       :     0.966225  s :     0.966225
      pz      :     0.005071  p :     0.028625
      px      :     0.015680
      py      :     0.007874

SPIN
  0 C s       :     0.009334  s :     0.009334
      pz      :     0.113349  p :     0.122740
      px      :     0.005384
      py      :     0.004007
      dz2     :    -0.000441  d :    -0.000634
      dxz     :     0.000053
      dyz     :    -0.000250
      dx2y2   :    -0.000006
      dxy     :     0.000011
  1 C s       :    -0.003644  s :    -0.003644
      pz      :    -0.014677  p :    -0.021187
      px      :    -0.004211
      py      :    -0.002299
      dz2     :     0.000038  d :     0.002299
      dxz     :     0.002158
      dyz     :     0.000071
      dx2y2   :    -0.000002
      dxy     :     0.000034
  2 C s       :     0.002631  s :     0.002631
      pz      :     0.063430  p :     0.066132
      px      :     0.002636
      py      :     0.000066
      dz2     :    -0.000260  d :     0.000539
      dxz     :    -0.000109
      dyz     :     0.000890
      dx2y2   :     0.000051
      dxy     :    -0.000033
  3 C s       :     0.007537  s :     0.007537
      pz      :     0.061566  p :     0.065480
      px      :     0.002897
      py      :     0.001017
      dz2     :    -0.000230  d :     0.000865
      dxz     :    -0.000017
      dyz     :     0.001049
      dx2y2   :     0.000084
      dxy     :    -0.000021
  4 C s       :    -0.004063  s :    -0.004063
      pz      :    -0.001342  p :    -0.013245
      px      :    -0.003427
      py      :    -0.008477
      dz2     :    -0.000016  d :     0.001185
      dxz     :     0.000004
      dyz     :     0.001302
      dx2y2   :    -0.000018
      dxy     :    -0.000087
  5 C s       :     0.002316  s :     0.002316
      pz      :     0.098770  p :     0.103311
      px      :     0.005744
      py      :    -0.001203
      dz2     :    -0.000413  d :     0.001107
      dxz     :     0.001447
      dyz     :    -0.000007
      dx2y2   :     0.000061
      dxy     :     0.000018
  6 C s       :     0.002242  s :     0.002242
      pz      :     0.006784  p :     0.000399
      px      :    -0.000414
      py      :    -0.005971
      dz2     :    -0.000037  d :     0.003953
      dxz     :     0.000588
      dyz     :     0.003339
      dx2y2   :     0.000110
      dxy     :    -0.000047
  7 C s       :     0.015017  s :     0.015017
      pz      :     0.192139  p :     0.206990
      px      :     0.008848
      py      :     0.006003
      dz2     :    -0.000760  d :    -0.000275
      dxz     :    -0.000145
      dyz     :     0.000531
      dx2y2   :     0.000127
      dxy     :    -0.000027
  8 C s       :    -0.005474  s :    -0.005474
      pz      :    -0.036778  p :    -0.049229
      px      :    -0.005186
      py      :    -0.007265
      dz2     :     0.000118  d :     0.003248
      dxz     :     0.001292
      dyz     :     0.001840
      dx2y2   :     0.000001
      dxy     :    -0.000004
  9 C s       :     0.009333  s :     0.009333
      pz      :     0.113349  p :     0.122740
      px      :     0.005384
      py      :     0.004007
      dz2     :    -0.000441  d :    -0.000634
      dxz     :     0.000053
      dyz     :    -0.000250
      dx2y2   :    -0.000006
      dxy     :     0.000011
 10 C s       :    -0.003643  s :    -0.003643
      pz      :    -0.014677  p :    -0.021186
      px      :    -0.004211
      py      :    -0.002299
      dz2     :     0.000038  d :     0.002299
      dxz     :     0.002158
      dyz     :     0.000071
      dx2y2   :    -0.000002
      dxy     :     0.000034
 11 C s       :     0.002630  s :     0.002630
      pz      :     0.063430  p :     0.066132
      px      :     0.002636
      py      :     0.000066
      dz2     :    -0.000260  d :     0.000539
      dxz     :    -0.000109
      dyz     :     0.000890
      dx2y2   :     0.000051
      dxy     :    -0.000033
 12 C s       :     0.007539  s :     0.007539
      pz      :     0.061566  p :     0.065480
      px      :     0.002896
      py      :     0.001018
      dz2     :    -0.000230  d :     0.000865
      dxz     :    -0.000017
      dyz     :     0.001049
      dx2y2   :     0.000084
      dxy     :    -0.000021
 13 C s       :    -0.004063  s :    -0.004063
      pz      :    -0.001342  p :    -0.013245
      px      :    -0.003427
      py      :    -0.008476
      dz2     :    -0.000016  d :     0.001185
      dxz     :     0.000004
      dyz     :     0.001302
      dx2y2   :    -0.000018
      dxy     :    -0.000087
 14 C s       :     0.002317  s :     0.002317
      pz      :     0.098770  p :     0.103311
      px      :     0.005744
      py      :    -0.001204
      dz2     :    -0.000413  d :     0.001107
      dxz     :     0.001447
      dyz     :    -0.000007
      dx2y2   :     0.000061
      dxy     :     0.000018
 15 C s       :     0.002244  s :     0.002244
      pz      :     0.006784  p :     0.000397
      px      :    -0.000415
      py      :    -0.005972
      dz2     :    -0.000037  d :     0.003953
      dxz     :     0.000588
      dyz     :     0.003339
      dx2y2   :     0.000110
      dxy     :    -0.000047
 16 C s       :     0.015019  s :     0.015019
      pz      :     0.192139  p :     0.206989
      px      :     0.008847
      py      :     0.006003
      dz2     :    -0.000760  d :    -0.000275
      dxz     :    -0.000145
      dyz     :     0.000531
      dx2y2   :     0.000127
      dxy     :    -0.000027
 17 C s       :    -0.005473  s :    -0.005473
      pz      :    -0.036778  p :    -0.049231
      px      :    -0.005186
      py      :    -0.007267
      dz2     :     0.000118  d :     0.003248
      dxz     :     0.001292
      dyz     :     0.001840
      dx2y2   :     0.000001
      dxy     :    -0.000004
 18 H s       :    -0.005771  s :    -0.005771
      pz      :     0.000666  p :     0.000709
      px      :     0.000043
      py      :     0.000000
 19 H s       :     0.000601  s :     0.000601
      pz      :    -0.000088  p :    -0.000111
      px      :    -0.000017
      py      :    -0.000006
 20 H s       :    -0.003642  s :    -0.003642
      pz      :     0.000406  p :     0.000426
      px      :     0.000028
      py      :    -0.000008
 21 H s       :    -0.003016  s :    -0.003016
      pz      :     0.000418  p :     0.000418
      px      :     0.000028
      py      :    -0.000028
 22 H s       :    -0.000493  s :    -0.000493
      pz      :     0.000121  p :     0.000076
      px      :    -0.000000
      py      :    -0.000045
 23 H s       :    -0.010034  s :    -0.010034
      pz      :     0.001198  p :     0.001259
      px      :     0.000083
      py      :    -0.000022
 24 H s       :    -0.005771  s :    -0.005771
      pz      :     0.000666  p :     0.000709
      px      :     0.000043
      py      :     0.000000
 25 H s       :     0.000601  s :     0.000601
      pz      :    -0.000088  p :    -0.000112
      px      :    -0.000017
      py      :    -0.000006
 26 H s       :    -0.003642  s :    -0.003642
      pz      :     0.000406  p :     0.000426
      px      :     0.000028
      py      :    -0.000008
 27 H s       :    -0.003016  s :    -0.003016
      pz      :     0.000418  p :     0.000418
      px      :     0.000028
      py      :    -0.000028
 28 H s       :    -0.000492  s :    -0.000492
      pz      :     0.000121  p :     0.000076
      px      :    -0.000000
      py      :    -0.000045
 29 H s       :    -0.010033  s :    -0.010033
      pz      :     0.001198  p :     0.001259
      px      :     0.000083
      py      :    -0.000022


                     *******************************
                     * LOEWDIN POPULATION ANALYSIS *
                     *******************************

-------------------------------------------
LOEWDIN ATOMIC CHARGES AND SPIN POPULATIONS
-------------------------------------------
   0 C :    0.045716    0.106804
   1 C :    0.015121   -0.006749
   2 C :    0.034484    0.062462
   3 C :    0.028863    0.061035
   4 C :   -0.004664    0.002506
   5 C :    0.033427    0.096744
   6 C :    0.017853    0.018610
   7 C :    0.078247    0.183249
   8 C :   -0.021697   -0.024917
   9 C :    0.045716    0.106804
  10 C :    0.015121   -0.006749
  11 C :    0.034484    0.062462
  12 C :    0.028863    0.061035
  13 C :   -0.004664    0.002506
  14 C :    0.033427    0.096744
  15 C :    0.017853    0.018610
  16 C :    0.078247    0.183249
  17 C :   -0.021697   -0.024917
  18 H :    0.044966    0.000025
  19 H :    0.048046   -0.000164
  20 H :    0.048339    0.000014
  21 H :    0.038607    0.000213
  22 H :    0.042535   -0.000061
  23 H :    0.050157    0.000228
  24 H :    0.044966    0.000025
  25 H :    0.048046   -0.000164
  26 H :    0.048339    0.000014
  27 H :    0.038607    0.000213
  28 H :    0.042535   -0.000061
  29 H :    0.050157    0.000228

----------------------------------------------------
LOEWDIN REDUCED ORBITAL CHARGES AND SPIN POPULATIONS
----------------------------------------------------
CHARGE
  0 C s       :     2.823414  s :     2.823414
      pz      :     0.872483  p :     2.937512
      px      :     1.037960
      py      :     1.027068
      dz2     :     0.012670  d :     0.193359
      dxz     :     0.013235
      dyz     :     0.025331
      dx2y2   :     0.070939
      dxy     :     0.071185
  1 C s       :     2.819676  s :     2.819676
      pz      :     0.897807  p :     2.971726
      px      :     1.045328
      py      :     1.028591
      dz2     :     0.012893  d :     0.193477
      dxz     :     0.026683
      dyz     :     0.008588
      dx2y2   :     0.081684
      dxy     :     0.063629
  2 C s       :     2.823056  s :     2.823056
      pz      :     0.872954  p :     2.948619
      px      :     1.035648
      py      :     1.040017
      dz2     :     0.012643  d :     0.193840
      dxz     :     0.013928
      dyz     :     0.023364
      dx2y2   :     0.066615
      dxy     :     0.077290
  3 C s       :     2.819398  s :     2.819398
      pz      :     0.894291  p :     2.958722
      px      :     1.023420
      py      :     1.041012
      dz2     :     0.012757  d :     0.193016
      dxz     :     0.012418
      dyz     :     0.025264
      dx2y2   :     0.066739
      dxy     :     0.075839
  4 C s       :     2.799194  s :     2.799194
      pz      :     0.933616  p :     2.967277
      px      :     1.034915
      py      :     0.998746
      dz2     :     0.015352  d :     0.238192
      dxz     :     0.028857
      dyz     :     0.025182
      dx2y2   :     0.087249
      dxy     :     0.081552
  5 C s       :     2.808658  s :     2.808658
      pz      :     0.877560  p :     2.920912
      px      :     1.030771
      py      :     1.012581
      dz2     :     0.014909  d :     0.237003
      dxz     :     0.026172
      dyz     :     0.029916
      dx2y2   :     0.083435
      dxy     :     0.082571
  6 C s       :     2.814630  s :     2.814630
      pz      :     0.908964  p :     2.974215
      px      :     1.026121
      py      :     1.039131
      dz2     :     0.013042  d :     0.193302
      dxz     :     0.012372
      dyz     :     0.022461
      dx2y2   :     0.066988
      dxy     :     0.078439
  7 C s       :     2.826026  s :     2.826026
      pz      :     0.823379  p :     2.899071
      px      :     1.030415
      py      :     1.045277
      dz2     :     0.012624  d :     0.196656
      dxz     :     0.012854
      dyz     :     0.028608
      dx2y2   :     0.065124
      dxy     :     0.077445
  8 C s       :     2.795291  s :     2.795291
      pz      :     0.932005  p :     2.981118
      px      :     1.022790
      py      :     1.026323
      dz2     :     0.015869  d :     0.245288
      dxz     :     0.025876
      dyz     :     0.028763
      dx2y2   :     0.085594
      dxy     :     0.089185
  9 C s       :     2.823414  s :     2.823414
      pz      :     0.872483  p :     2.937512
      px      :     1.037960
      py      :     1.027068
      dz2     :     0.012670  d :     0.193359
      dxz     :     0.013235
      dyz     :     0.025331
      dx2y2   :     0.070939
      dxy     :     0.071185
 10 C s       :     2.819676  s :     2.819676
      pz      :     0.897807  p :     2.971726
      px      :     1.045328
      py      :     1.028591
      dz2     :     0.012893  d :     0.193477
      dxz     :     0.026683
      dyz     :     0.008588
      dx2y2   :     0.081684
      dxy     :     0.063629
 11 C s       :     2.823056  s :     2.823056
      pz      :     0.872954  p :     2.948619
      px      :     1.035648
      py      :     1.040017
      dz2     :     0.012643  d :     0.193840
      dxz     :     0.013928
      dyz     :     0.023364
      dx2y2   :     0.066615
      dxy     :     0.077290
 12 C s       :     2.819398  s :     2.819398
      pz      :     0.894291  p :     2.958722
      px      :     1.023420
      py      :     1.041012
      dz2     :     0.012757  d :     0.193016
      dxz     :     0.012418
      dyz     :     0.025264
      dx2y2   :     0.066739
      dxy     :     0.075839
 13 C s       :     2.799194  s :     2.799194
      pz      :     0.933616  p :     2.967277
      px      :     1.034915
      py      :     0.998746
      dz2     :     0.015352  d :     0.238192
      dxz     :     0.028857
      dyz     :     0.025182
      dx2y2   :     0.087249
      dxy     :     0.081552
 14 C s       :     2.808658  s :     2.808658
      pz      :     0.877560  p :     2.920912
      px      :     1.030771
      py      :     1.012581
      dz2     :     0.014909  d :     0.237003
      dxz     :     0.026172
      dyz     :     0.029916
      dx2y2   :     0.083435
      dxy     :     0.082571
 15 C s       :     2.814630  s :     2.814630
      pz      :     0.908964  p :     2.974215
      px      :     1.026121
      py      :     1.039131
      dz2     :     0.013042  d :     0.193302
      dxz     :     0.012372
      dyz     :     0.022461
      dx2y2   :     0.066988
      dxy     :     0.078439
 16 C s       :     2.826026  s :     2.826026
      pz      :     0.823379  p :     2.899071
      px      :     1.030415
      py      :     1.045277
      dz2     :     0.012624  d :     0.196656
      dxz     :     0.012854
      dyz     :     0.028608
      dx2y2   :     0.065124
      dxy     :     0.077445
 17 C s       :     2.795291  s :     2.795291
      pz      :     0.932005  p :     2.981118
      px      :     1.022790
      py      :     1.026323
      dz2     :     0.015869  d :     0.245288
      dxz     :     0.025876
      dyz     :     0.028763
      dx2y2   :     0.085594
      dxy     :     0.089185
 18 H s       :     0.872578  s :     0.872578
      pz      :     0.016255  p :     0.082456
      px      :     0.043301
      py      :     0.022900
 19 H s       :     0.869659  s :     0.869659
      pz      :     0.016257  p :     0.082295
      px      :     0.014642
      py      :     0.051396
 20 H s       :     0.869785  s :     0.869785
      pz      :     0.015783  p :     0.081876
      px      :     0.041443
      py      :     0.024650
 21 H s       :     0.877118  s :     0.877118
      pz      :     0.016847  p :     0.084275
      px      :     0.044562
      py      :     0.022866
 22 H s       :     0.872617  s :     0.872617
      pz      :     0.017025  p :     0.084847
      px      :     0.043509
      py      :     0.024313
 23 H s       :     0.867909  s :     0.867909
      pz      :     0.014902  p :     0.081934
      px      :     0.043754
      py      :     0.023278
 24 H s       :     0.872578  s :     0.872578
      pz      :     0.016255  p :     0.082456
      px      :     0.043301
[...]
  e**2qQ            =     0.207 MHz 
  e**2qQ/(4I*(2I-1))=     0.052 MHz 
  eta               =     0.044
  NOTE: the diagonal representation of the SH term I*Q*I = e**2qQ/(4I(2I-1))*[-(1-eta),-(1+eta),2]

 -----------------------------------------------------------
 Nucleus  24H : A:ISTP=    1 I=  0.5 P=533.5514 MHz/au**3
                Q:ISTP=    2 I=  1.0 Q=  0.0029 barn     
 -----------------------------------------------------------
             0.8702887  -0.0000000   0.4925419
            -0.4925419   0.0000000   0.8702887
             0.0000000   1.0000000   0.0000000

Have to flip the third column
             0.8702887  -0.0000000  -0.4925419
            -0.4925419   0.0000000  -0.8702887
             0.0000000   1.0000000  -0.0000000
 Raw HFC matrix (all values in MHz): 
 ------------------------------
                -5.0881              -3.9754               0.0000
                -3.9754              -9.8625              -0.0000
                 0.0000              -0.0000              -9.4381

 A(FC)          -8.1296              -8.1296              -8.1296
 A(SD)           5.2914              -1.3085              -3.9828
             ----------           ----------           ----------
 A(Tot)         -2.8382              -9.4381             -12.1124    A(iso)=   -8.1296
 Orientation: 
  X           0.8702887           -0.0000000           -0.4925419
  Y          -0.4925419            0.0000000           -0.8702887
  Z           0.0000000            1.0000000           -0.0000000

 Raw EFG matrix (all values in a.u.**-3):
             0.2144      -0.1849      -0.0000
            -0.1849      -0.0508      -0.0000
            -0.0000      -0.0000      -0.1636

 V(El)       0.4568       0.8854      -1.3422
 V(Nuc)     -0.6025      -1.0490       1.6516
         ----------   ----------   ----------
 V(Tot)     -0.1457      -0.1636       0.3093 
 Orientation: 
  X       0.4567460    0.0000000    0.8895972
  Y       0.8895972    0.0000000   -0.4567460
  Z      -0.0000000    1.0000000   -0.0000000


 Quadrupole tensor eigenvalues (in MHz;Q= 0.0029 I=  1.0)
  e**2qQ            =     0.209 MHz 
  e**2qQ/(4I*(2I-1))=     0.052 MHz 
  eta               =     0.058
  NOTE: the diagonal representation of the SH term I*Q*I = e**2qQ/(4I(2I-1))*[-(1-eta),-(1+eta),2]

 -----------------------------------------------------------
 Nucleus  25H : A:ISTP=    1 I=  0.5 P=533.5514 MHz/au**3
                Q:ISTP=    2 I=  1.0 Q=  0.0029 barn     
 -----------------------------------------------------------
 Raw HFC matrix (all values in MHz): 
 ------------------------------
                 0.8560               1.0114               0.0000
                 1.0114               1.6391              -0.0000
                 0.0000              -0.0000              -0.4105

 A(FC)           0.6949               0.6949               0.6949
 A(SD)          -0.5319              -1.1053               1.6372
             ----------           ----------           ----------
 A(Tot)          0.1630              -0.4105               2.3321    A(iso)=    0.6949
 Orientation: 
  X           0.8249266           -0.0000000           -0.5652399
  Y          -0.5652399            0.0000000           -0.8249266
  Z           0.0000000            1.0000000           -0.0000000

            -0.9995892  -0.0000000   0.0286619
            -0.0286619  -0.0000000  -0.9995892
            -0.0000000   1.0000000   0.0000000

Have to flip the third column
            -0.9995892  -0.0000000  -0.0286619
            -0.0286619  -0.0000000   0.9995892
            -0.0000000   1.0000000  -0.0000000
 Raw EFG matrix (all values in a.u.**-3):
            -0.1476      -0.0132       0.0000
            -0.0132       0.3117      -0.0000
             0.0000      -0.0000      -0.1641

 V(El)       0.6026       0.8267      -1.4293
 V(Nuc)     -0.7506      -0.9908       1.7414
         ----------   ----------   ----------
 V(Tot)     -0.1480      -0.1641       0.3121 
 Orientation: 
  X      -0.9995892   -0.0000000   -0.0286619
  Y      -0.0286619   -0.0000000    0.9995892
  Z      -0.0000000    1.0000000   -0.0000000


 Quadrupole tensor eigenvalues (in MHz;Q= 0.0029 I=  1.0)
  e**2qQ            =     0.211 MHz 
  e**2qQ/(4I*(2I-1))=     0.053 MHz 
  eta               =     0.051
  NOTE: the diagonal representation of the SH term I*Q*I = e**2qQ/(4I(2I-1))*[-(1-eta),-(1+eta),2]

 -----------------------------------------------------------
 Nucleus  26H : A:ISTP=    1 I=  0.5 P=533.5514 MHz/au**3
                Q:ISTP=    2 I=  1.0 Q=  0.0029 barn     
 -----------------------------------------------------------
 Raw HFC matrix (all values in MHz): 
 ------------------------------
                -4.1734               3.7010              -0.0000
                 3.7010              -4.6810              -0.0000
                -0.0000              -0.0000              -5.7501

 A(FC)          -4.8682              -4.8682              -4.8682
 A(SD)           4.1506              -0.8819              -3.2687
             ----------           ----------           ----------
 A(Tot)         -0.7175              -5.7501              -8.1368    A(iso)=   -4.8682
 Orientation: 
  X           0.7308974            0.0000000            0.6824874
  Y           0.6824874            0.0000000           -0.7308974
  Z          -0.0000000            1.0000000           -0.0000000

             0.5210905  -0.0000000   0.8535014
            -0.8535014   0.0000000   0.5210905
             0.0000000   1.0000000  -0.0000000

Have to flip the third column
             0.5210905  -0.0000000  -0.8535014
            -0.8535014   0.0000000  -0.5210905
             0.0000000   1.0000000   0.0000000
 Raw EFG matrix (all values in a.u.**-3):
             0.1860       0.2039      -0.0000
             0.2039      -0.0235      -0.0000
            -0.0000      -0.0000      -0.1625

 V(El)       0.5738       0.8369      -1.4107
 V(Nuc)     -0.7217      -0.9995       1.7212
         ----------   ----------   ----------
 V(Tot)     -0.1479      -0.1625       0.3105 
 Orientation: 
  X       0.5210905   -0.0000000   -0.8535014
  Y      -0.8535014    0.0000000   -0.5210905
  Z       0.0000000    1.0000000    0.0000000


 Quadrupole tensor eigenvalues (in MHz;Q= 0.0029 I=  1.0)
  e**2qQ            =     0.210 MHz 
  e**2qQ/(4I*(2I-1))=     0.053 MHz 
  eta               =     0.047
  NOTE: the diagonal representation of the SH term I*Q*I = e**2qQ/(4I(2I-1))*[-(1-eta),-(1+eta),2]

 -----------------------------------------------------------
 Nucleus  27H : A:ISTP=    1 I=  0.5 P=533.5514 MHz/au**3
                Q:ISTP=    2 I=  1.0 Q=  0.0029 barn     
 -----------------------------------------------------------
 Raw HFC matrix (all values in MHz): 
 ------------------------------
                -2.9129              -2.4574               0.0000
                -2.4574              -4.5608               0.0000
                 0.0000               0.0000              -5.7033

 A(FC)          -4.3923              -4.3923              -4.3923
 A(SD)           3.2473              -1.3109              -1.9364
             ----------           ----------           ----------
 A(Tot)         -1.1450              -5.7033              -6.3287    A(iso)=   -4.3923
 Orientation: 
  X           0.8117565            0.0000000           -0.5839960
  Y          -0.5839960            0.0000000           -0.8117565
  Z          -0.0000000            1.0000000            0.0000000

            -0.4461453  -0.0000000   0.8949605
            -0.8949605  -0.0000000  -0.4461453
            -0.0000000   1.0000000  -0.0000000

Have to flip the third column
            -0.4461453  -0.0000000  -0.8949605
            -0.8949605  -0.0000000   0.4461453
            -0.0000000   1.0000000   0.0000000
 Raw EFG matrix (all values in a.u.**-3):
             0.2236      -0.1849      -0.0000
            -0.1849      -0.0551       0.0000
            -0.0000       0.0000      -0.1686

 V(El)       0.3150       0.9560      -1.2710
 V(Nuc)     -0.4622      -1.1246       1.5868
         ----------   ----------   ----------
 V(Tot)     -0.1472      -0.1686       0.3158 
 Orientation: 
  X      -0.4461453   -0.0000000   -0.8949605
  Y      -0.8949605   -0.0000000    0.4461453
  Z      -0.0000000    1.0000000    0.0000000


 Quadrupole tensor eigenvalues (in MHz;Q= 0.0029 I=  1.0)
  e**2qQ            =     0.214 MHz 
  e**2qQ/(4I*(2I-1))=     0.053 MHz 
  eta               =     0.068
  NOTE: the diagonal representation of the SH term I*Q*I = e**2qQ/(4I(2I-1))*[-(1-eta),-(1+eta),2]

 -----------------------------------------------------------
 Nucleus  28H : A:ISTP=    1 I=  0.5 P=533.5514 MHz/au**3
                Q:ISTP=    2 I=  1.0 Q=  0.0029 barn     
 -----------------------------------------------------------
             0.5167770   0.8561201  -0.0000001
             0.8561201  -0.5167770   0.0000000
             0.0000000   0.0000001   1.0000000

Have to flip the third column
             0.5167770   0.8561201   0.0000001
             0.8561201  -0.5167770  -0.0000000
             0.0000000   0.0000001  -1.0000000
 Raw HFC matrix (all values in MHz): 
 ------------------------------
                -1.1978               2.1041               0.0000
                 2.1041               1.0179               0.0000
                 0.0000               0.0000              -3.0723

 A(FC)          -1.0841              -1.0841              -1.0841
 A(SD)           3.3721              -1.3838              -1.9883
             ----------           ----------           ----------
 A(Tot)          2.2880              -2.4679              -3.0723    A(iso)=   -1.0841
 Orientation: 
  X           0.5167770            0.8561201            0.0000001
  Y           0.8561201           -0.5167770           -0.0000000
  Z           0.0000000            0.0000001           -1.0000000

 Raw EFG matrix (all values in a.u.**-3):
             0.2079       0.1956       0.0000
             0.1956      -0.0387       0.0000
             0.0000       0.0000      -0.1692

 V(El)       0.3373       0.9754      -1.3127
 V(Nuc)     -0.4839      -1.1446       1.6285
         ----------   ----------   ----------
 V(Tot)     -0.1467      -0.1692       0.3159 
 Orientation: 
  X       0.4830923   -0.0000000   -0.8755694
  Y      -0.8755694   -0.0000000   -0.4830923
  Z      -0.0000000    1.0000000   -0.0000000


 Quadrupole tensor eigenvalues (in MHz;Q= 0.0029 I=  1.0)
  e**2qQ            =     0.214 MHz 
  e**2qQ/(4I*(2I-1))=     0.053 MHz 
  eta               =     0.071
  NOTE: the diagonal representation of the SH term I*Q*I = e**2qQ/(4I(2I-1))*[-(1-eta),-(1+eta),2]

 -----------------------------------------------------------
 Nucleus  29H : A:ISTP=    1 I=  0.5 P=533.5514 MHz/au**3
                Q:ISTP=    2 I=  1.0 Q=  0.0029 barn     
 -----------------------------------------------------------
             0.8372055  -0.0000000   0.5468884
            -0.5468884   0.0000000   0.8372055
             0.0000000   1.0000000  -0.0000000

Have to flip the third column
             0.8372055  -0.0000000  -0.5468884
            -0.5468884   0.0000000  -0.8372055
             0.0000000   1.0000000   0.0000000
 Raw HFC matrix (all values in MHz): 
 ------------------------------
                -9.6512              -8.1764               0.0000
                -8.1764             -16.8270              -0.0000
                 0.0000              -0.0000             -15.5840

 A(FC)         -14.0207             -14.0207             -14.0207
 A(SD)           9.7106              -1.5633              -8.1473
             ----------           ----------           ----------
 A(Tot)         -4.3101             -15.5840             -22.1680    A(iso)=  -14.0207
 Orientation: 
  X           0.8372055           -0.0000000           -0.5468884
  Y          -0.5468884            0.0000000           -0.8372055
  Z           0.0000000            1.0000000            0.0000000

            -0.4899202  -0.0000000   0.8717673
            -0.8717673  -0.0000000  -0.4899202
            -0.0000000   1.0000000   0.0000000

Have to flip the third column
            -0.4899202  -0.0000000  -0.8717673
            -0.8717673  -0.0000000   0.4899202
            -0.0000000   1.0000000  -0.0000000
 Raw EFG matrix (all values in a.u.**-3):
             0.1976      -0.1933       0.0000
            -0.1933      -0.0377       0.0000
             0.0000       0.0000      -0.1599

 V(El)       0.4612       0.9104      -1.3717
 V(Nuc)     -0.6076      -1.0704       1.6779
         ----------   ----------   ----------
 V(Tot)     -0.1463      -0.1599       0.3063 
 Orientation: 
  X      -0.4899202   -0.0000000   -0.8717673
  Y      -0.8717673   -0.0000000    0.4899202
  Z      -0.0000000    1.0000000   -0.0000000


 Quadrupole tensor eigenvalues (in MHz;Q= 0.0029 I=  1.0)
  e**2qQ            =     0.207 MHz 
  e**2qQ/(4I*(2I-1))=     0.052 MHz 
  eta               =     0.044
  NOTE: the diagonal representation of the SH term I*Q*I = e**2qQ/(4I(2I-1))*[-(1-eta),-(1+eta),2]

----------------------------------------------------------------------------
                           ORCA EULER ANGLE PROGRAM
----------------------------------------------------------------------------

Only g-tensor available        -->  using g-tensor as reference tensor

Reference tensor               ...  g

g-tensor ordering              ...  |g_min> --> |gx>
                                    |g_mid> --> |gy>
                                    |g_max> --> |gz>

A- and EFG-tensor ordering     ...  the axes |Ax>, |Qx>, |Ay>, etc. are assigned
                                    such that the Euler rotation is minimal. You
                                    can find the respective eigenvalues as Ax,
                                    EFGx, Ay, etc. in the tables below.
                                    The relation of |Ax>, |Ay>,  etc. to Amin, Amid, etc.
                                    (as printed in the ORCA EPR/NMR CALCULATION Output)
                                    is obtained in the detailed printout.

Euler rotation around          ...  z - y - z
   First rotation              -->  by alpha around z
   Second rotation             -->  by beta around y'
   Third rotation              -->  by gamma around z''
   Positive / Negative angle   -->  clockwise / counterclockwise rotation

Plot EFG-tensors                    (-)
Plot HFC-tensors                    (-)
Detailed Printout                   (-)

-------------------------------------------------------------------------
          Euler rotation of hyperfine tensor to g-tensor
-------------------------------------------------------------------------

-------------------------------------------------------------------
 Atom  |   Alpha    Beta    Gamma   |   Ax       Ay       Az 
       |          [degrees]         |           [MHz]         
-------------------------------------------------------------------
  0C        9.0      0.6     18.4       8.48     8.57    37.37
  1C       40.4      0.6     18.4      -5.78    -5.22    -8.84
  2C       -8.7      0.6     18.4       2.55     2.94    18.69
  3C      -19.6      0.6     18.4       2.04     2.76    17.72
  4C        0.5      0.6     18.4      -4.50    -3.34    -4.55
  5C      -17.3      0.6     18.4       3.36     3.57    29.63
  6C       44.7      0.6     18.4      -6.13    -7.50    -4.44
  7C       36.4      0.6     18.4      13.84    13.26    62.86
  8C        0.6      0.6     18.4     -10.63    -9.44   -19.27
  9C        9.1      0.6     18.4       8.48     8.57    37.37
 10C       40.4      0.6     18.4      -5.78    -5.22    -8.84
 11C       -8.7      0.6     18.4       2.55     2.94    18.69
 12C      -19.6      0.6     18.4       2.04     2.76    17.72
 13C        0.5      0.6     18.4      -4.50    -3.34    -4.55
 14C      -17.3      0.6     18.4       3.36     3.57    29.63
 15C       44.7      0.6     18.4      -6.13    -7.50    -4.44
 16C       36.4      0.6     18.4      13.84    13.26    62.86
 17C        0.6      0.6     18.4     -10.63    -9.44   -19.27
 18H        2.5      0.6     18.4      -2.84   -12.11    -9.44
 19H        7.4      0.6     18.4       0.16     2.33    -0.41
 20H       19.9      0.6     18.4      -8.14    -0.72    -5.75
 21H        8.7      0.6     18.4      -1.14    -6.33    -5.70
 22H        4.1      0.6     18.4      -2.47     2.29    -3.07
 23H        6.1      0.6     18.4      -4.31   -22.17   -15.58
 24H        2.5      0.6     18.4      -2.84   -12.11    -9.44
 25H        7.4      0.6     18.4       0.16     2.33    -0.41
 26H       19.9      0.6     18.4      -8.14    -0.72    -5.75
 27H        8.7      0.6     18.4      -1.15    -6.33    -5.70
 28H        4.1      0.6     18.4      -2.47     2.29    -3.07
 29H        6.1      0.6     18.4      -4.31   -22.17   -15.58
-------------------------------------------------------------------


-------------------------------------------------------------------------------
    Euler rotation of Electric Field Gradient (EFG) tensor to g-tensor
-------------------------------------------------------------------------------

-------------------------------------------------------------------
 Atom  |   Alpha    Beta    Gamma  |   EFGx     EFGy     EFGz
       |          [degrees]        |         [a.u.**-3]       
-------------------------------------------------------------------
  0C       34.6      0.6     18.4     -0.13    -0.20     0.34
  1C      -11.2      0.6     18.4     -0.15    -0.16     0.31
  2C      -21.6      0.6     18.4     -0.18    -0.16     0.34
  3C      -33.1      0.6     18.4     -0.13    -0.17     0.30
  4C      -33.4      0.6     18.4     -0.16    -0.07     0.22
  5C        7.0      0.6     18.4     -0.18    -0.13     0.31
  6C       -7.7      0.6     18.4     -0.13    -0.16     0.28
  7C      -20.7      0.6     18.4     -0.19    -0.22     0.41
  8C      -31.4      0.6     18.4     -0.10    -0.13     0.24
  9C       34.6      0.6     18.4     -0.13    -0.20     0.34
 10C      -11.2      0.6     18.4     -0.15    -0.16     0.31
 11C      -21.6      0.6     18.4     -0.18    -0.16     0.34
 12C      -33.1      0.6     18.4     -0.13    -0.17     0.30
 13C      -33.4      0.6     18.4     -0.16    -0.07     0.22
 14C        7.0      0.6     18.4     -0.18    -0.13     0.31
 15C       -7.7      0.6     18.4     -0.13    -0.16     0.28
 16C      -20.7      0.6     18.4     -0.19    -0.22     0.41
 17C      -31.4      0.6     18.4     -0.10    -0.13     0.24
 18H        0.2      0.6     18.4      0.31    -0.15    -0.16
 19H      -28.7      0.6     18.4     -0.15     0.31    -0.16
 20H       31.6      0.6     18.4     -0.15     0.31    -0.16
 21H       -0.5      0.6     18.4      0.32    -0.15    -0.17
 22H       34.1      0.6     18.4     -0.15     0.32    -0.17
 23H        2.3      0.6     18.4      0.31    -0.15    -0.16
 24H        0.2      0.6     18.4      0.31    -0.15    -0.16
 25H      -28.7      0.6     18.4     -0.15     0.31    -0.16
 26H       31.6      0.6     18.4     -0.15     0.31    -0.16
 27H       -0.5      0.6     18.4      0.32    -0.15    -0.17
 28H       34.1      0.6     18.4     -0.15     0.32    -0.17
 29H        2.3      0.6     18.4      0.31    -0.15    -0.16
-------------------------------------------------------------------


Timings for individual modules:

Sum of individual times         ...     2145.100 sec (=  35.752 min)
GTO integral calculation        ...        0.546 sec (=   0.009 min)   0.0 %
Spin-Orbit-Coupling Matrices    ...      395.547 sec (=   6.592 min)  18.4 %
SCF iterations                  ...     1122.450 sec (=  18.708 min)  52.3 %
SCF-level EPR/NMR calculation   ...      626.557 sec (=  10.443 min)  29.2 %
                             ****ORCA TERMINATED NORMALLY****
TOTAL RUN TIME: 0 days 0 hours 35 minutes 45 seconds 289 msec
